s 0.475592155 _4_ RTR  --- 0 message 32 [0 0 0 0] [energy 3.000000 ei 0.000 es 0.000 et 0.000 er 0.000] ------- [4:255 -1:255 32 0] 
s 0.475907155 _4_ MAC  --- 0 message 90 [0 ffffffff 4 800] [energy 3.000000 ei 0.000 es 0.000 et 0.000 er 0.000] ------- [4:255 -1:255 32 0] 
N -t 0.475907 -n 2 -e 0.999640
N -t 0.475907 -n 0 -e 0.999640
N -t 0.475907 -n 1 -e 0.999640
N -t 0.475907 -n 3 -e 2.999640
r 0.476627391 _2_ MAC  --- 0 message 32 [0 ffffffff 4 800] [energy 0.999640 ei 0.000 es 0.000 et 0.000 er 0.000] ------- [4:255 -1:255 32 0] 
r 0.476627391 _0_ MAC  --- 0 message 32 [0 ffffffff 4 800] [energy 0.999640 ei 0.000 es 0.000 et 0.000 er 0.000] ------- [4:255 -1:255 32 0] 
r 0.476627391 _1_ MAC  --- 0 message 32 [0 ffffffff 4 800] [energy 0.999640 ei 0.000 es 0.000 et 0.000 er 0.000] ------- [4:255 -1:255 32 0] 
r 0.476627391 _3_ MAC  --- 0 message 32 [0 ffffffff 4 800] [energy 2.999640 ei 0.000 es 0.000 et 0.000 er 0.000] ------- [4:255 -1:255 32 0] 
r 0.476652391 _2_ RTR  --- 0 message 32 [0 ffffffff 4 800] [energy 0.999640 ei 0.000 es 0.000 et 0.000 er 0.000] ------- [4:255 -1:255 32 0] 
r 0.476652391 _0_ RTR  --- 0 message 32 [0 ffffffff 4 800] [energy 0.999640 ei 0.000 es 0.000 et 0.000 er 0.000] ------- [4:255 -1:255 32 0] 
r 0.476652391 _1_ RTR  --- 0 message 32 [0 ffffffff 4 800] [energy 0.999640 ei 0.000 es 0.000 et 0.000 er 0.000] ------- [4:255 -1:255 32 0] 
r 0.476652391 _3_ RTR  --- 0 message 32 [0 ffffffff 4 800] [energy 2.999640 ei 0.000 es 0.000 et 0.000 er 0.000] ------- [4:255 -1:255 32 0] 
s 0.626351489 _2_ RTR  --- 1 message 32 [0 0 0 0] [energy 0.999640 ei 0.000 es 0.000 et 0.000 er 0.000] ------- [2:255 -1:255 32 0] 
s 0.626786489 _2_ MAC  --- 1 message 90 [0 ffffffff 2 800] [energy 0.999640 ei 0.000 es 0.000 et 0.000 er 0.000] ------- [2:255 -1:255 32 0] 
N -t 0.626787 -n 4 -e 2.999165
N -t 0.626787 -n 0 -e 0.999280
N -t 0.626787 -n 3 -e 2.999280
N -t 0.626787 -n 1 -e 0.999280
r 0.627506725 _4_ MAC  --- 1 message 32 [0 ffffffff 2 800] [energy 2.999165 ei 0.000 es 0.000 et 0.000 er 0.000] ------- [2:255 -1:255 32 0] 
r 0.627506822 _0_ MAC  --- 1 message 32 [0 ffffffff 2 800] [energy 0.999280 ei 0.000 es 0.000 et 0.000 er 0.001] ------- [2:255 -1:255 32 0] 
r 0.627506822 _3_ MAC  --- 1 message 32 [0 ffffffff 2 800] [energy 2.999280 ei 0.000 es 0.000 et 0.000 er 0.001] ------- [2:255 -1:255 32 0] 
r 0.627506960 _1_ MAC  --- 1 message 32 [0 ffffffff 2 800] [energy 0.999280 ei 0.000 es 0.000 et 0.000 er 0.001] ------- [2:255 -1:255 32 0] 
r 0.627531725 _4_ RTR  --- 1 message 32 [0 ffffffff 2 800] [energy 2.999165 ei 0.000 es 0.000 et 0.000 er 0.000] ------- [2:255 -1:255 32 0] 
r 0.627531822 _0_ RTR  --- 1 message 32 [0 ffffffff 2 800] [energy 0.999280 ei 0.000 es 0.000 et 0.000 er 0.001] ------- [2:255 -1:255 32 0] 
r 0.627531822 _3_ RTR  --- 1 message 32 [0 ffffffff 2 800] [energy 2.999280 ei 0.000 es 0.000 et 0.000 er 0.001] ------- [2:255 -1:255 32 0] 
r 0.627531960 _1_ RTR  --- 1 message 32 [0 ffffffff 2 800] [energy 0.999280 ei 0.000 es 0.000 et 0.000 er 0.001] ------- [2:255 -1:255 32 0] 
s 0.886583331 _0_ RTR  --- 2 message 32 [0 0 0 0] [energy 0.999280 ei 0.000 es 0.000 et 0.000 er 0.001] ------- [0:255 -1:255 32 0] 
s 0.886998331 _0_ MAC  --- 2 message 90 [0 ffffffff 0 800] [energy 0.999280 ei 0.000 es 0.000 et 0.000 er 0.001] ------- [0:255 -1:255 32 0] 
N -t 0.886999 -n 4 -e 2.998805
N -t 0.886999 -n 2 -e 0.998805
N -t 0.886999 -n 1 -e 0.998920
N -t 0.886999 -n 3 -e 2.998920
r 0.887718567 _4_ MAC  --- 2 message 32 [0 ffffffff 0 800] [energy 2.998805 ei 0.000 es 0.000 et 0.000 er 0.001] ------- [0:255 -1:255 32 0] 
r 0.887718665 _2_ MAC  --- 2 message 32 [0 ffffffff 0 800] [energy 0.998805 ei 0.000 es 0.000 et 0.000 er 0.001] ------- [0:255 -1:255 32 0] 
r 0.887718665 _1_ MAC  --- 2 message 32 [0 ffffffff 0 800] [energy 0.998920 ei 0.000 es 0.000 et 0.000 er 0.001] ------- [0:255 -1:255 32 0] 
r 0.887718803 _3_ MAC  --- 2 message 32 [0 ffffffff 0 800] [energy 2.998920 ei 0.000 es 0.000 et 0.000 er 0.001] ------- [0:255 -1:255 32 0] 
r 0.887743567 _4_ RTR  --- 2 message 32 [0 ffffffff 0 800] [energy 2.998805 ei 0.000 es 0.000 et 0.000 er 0.001] ------- [0:255 -1:255 32 0] 
r 0.887743665 _2_ RTR  --- 2 message 32 [0 ffffffff 0 800] [energy 0.998805 ei 0.000 es 0.000 et 0.000 er 0.001] ------- [0:255 -1:255 32 0] 
r 0.887743665 _1_ RTR  --- 2 message 32 [0 ffffffff 0 800] [energy 0.998920 ei 0.000 es 0.000 et 0.000 er 0.001] ------- [0:255 -1:255 32 0] 
r 0.887743803 _3_ RTR  --- 2 message 32 [0 ffffffff 0 800] [energy 2.998920 ei 0.000 es 0.000 et 0.000 er 0.001] ------- [0:255 -1:255 32 0] 
s 1.000000000 _0_ AGT  --- 3 tcp 40 [0 0 0 0] [energy 0.998805 ei 0.000 es 0.000 et 0.000 er 0.001] ------- [0:0 1:0 32 0] [0 0] 0 0
r 1.000000000 _0_ RTR  --- 3 tcp 40 [0 0 0 0] [energy 0.998805 ei 0.000 es 0.000 et 0.000 er 0.001] ------- [0:0 1:0 32 0] [0 0] 0 0
s 1.601798317 _1_ RTR  --- 4 message 32 [0 0 0 0] [energy 0.998920 ei 0.000 es 0.000 et 0.000 er 0.001] ------- [1:255 -1:255 32 0] 
s 1.601893317 _1_ MAC  --- 4 message 90 [0 ffffffff 1 800] [energy 0.998920 ei 0.000 es 0.000 et 0.000 er 0.001] ------- [1:255 -1:255 32 0] 
N -t 1.601894 -n 4 -e 2.998445
N -t 1.601894 -n 0 -e 0.998445
N -t 1.601894 -n 3 -e 2.998560
N -t 1.601894 -n 2 -e 0.998445
r 1.602613553 _4_ MAC  --- 4 message 32 [0 ffffffff 1 800] [energy 2.998445 ei 0.000 es 0.000 et 0.000 er 0.001] ------- [1:255 -1:255 32 0] 
r 1.602613651 _0_ MAC  --- 4 message 32 [0 ffffffff 1 800] [energy 0.998445 ei 0.000 es 0.000 et 0.000 er 0.001] ------- [1:255 -1:255 32 0] 
r 1.602613651 _3_ MAC  --- 4 message 32 [0 ffffffff 1 800] [energy 2.998560 ei 0.000 es 0.000 et 0.000 er 0.001] ------- [1:255 -1:255 32 0] 
r 1.602613789 _2_ MAC  --- 4 message 32 [0 ffffffff 1 800] [energy 0.998445 ei 0.000 es 0.000 et 0.000 er 0.001] ------- [1:255 -1:255 32 0] 
r 1.602638553 _4_ RTR  --- 4 message 32 [0 ffffffff 1 800] [energy 2.998445 ei 0.000 es 0.000 et 0.000 er 0.001] ------- [1:255 -1:255 32 0] 
r 1.602638651 _0_ RTR  --- 4 message 32 [0 ffffffff 1 800] [energy 0.998445 ei 0.000 es 0.000 et 0.000 er 0.001] ------- [1:255 -1:255 32 0] 
s 1.602638651 _0_ RTR  --- 3 tcp 80 [0 0 0 0] [energy 0.998445 ei 0.000 es 0.000 et 0.000 er 0.001] ------- [0:0 1:0 32 1] [0 0] 0 0
r 1.602638651 _3_ RTR  --- 4 message 32 [0 ffffffff 1 800] [energy 2.998560 ei 0.000 es 0.000 et 0.000 er 0.001] ------- [1:255 -1:255 32 0] 
r 1.602638789 _2_ RTR  --- 4 message 32 [0 ffffffff 1 800] [energy 0.998445 ei 0.000 es 0.000 et 0.000 er 0.001] ------- [1:255 -1:255 32 0] 
s 1.603133651 _0_ MAC  --- 0 ARP 86 [0 ffffffff 0 806] [energy 0.998445 ei 0.000 es 0.000 et 0.000 er 0.001] ------- [REQUEST 0/0 0/1]
N -t 1.603134 -n 4 -e 2.998101
N -t 1.603134 -n 2 -e 0.998101
N -t 1.603134 -n 1 -e 0.998101
N -t 1.603134 -n 3 -e 2.998216
r 1.603821886 _4_ MAC  --- 0 ARP 28 [0 ffffffff 0 806] [energy 2.998101 ei 0.000 es 0.000 et 0.000 er 0.001] ------- [REQUEST 0/0 0/1]
r 1.603821984 _2_ MAC  --- 0 ARP 28 [0 ffffffff 0 806] [energy 0.998101 ei 0.000 es 0.000 et 0.000 er 0.001] ------- [REQUEST 0/0 0/1]
r 1.603821984 _1_ MAC  --- 0 ARP 28 [0 ffffffff 0 806] [energy 0.998101 ei 0.000 es 0.000 et 0.000 er 0.001] ------- [REQUEST 0/0 0/1]
r 1.603822122 _3_ MAC  --- 0 ARP 28 [0 ffffffff 0 806] [energy 2.998216 ei 0.000 es 0.000 et 0.000 er 0.002] ------- [REQUEST 0/0 0/1]
s 1.604456984 _1_ MAC  --- 0 RTS 44 [52e 0 1 0] [energy 0.998101 ei 0.000 es 0.000 et 0.000 er 0.001] 
N -t 1.604457 -n 4 -e 2.997925
N -t 1.604457 -n 0 -e 0.997815
N -t 1.604457 -n 3 -e 2.998040
N -t 1.604457 -n 2 -e 0.997925
r 1.604809317 _0_ MAC  --- 0 RTS 44 [52e 0 1 0] [energy 0.997815 ei 0.000 es 0.000 et 0.001 er 0.001] 
s 1.604819317 _0_ MAC  --- 0 CTS 38 [3f4 1 0 0] [energy 0.997815 ei 0.000 es 0.000 et 0.001 er 0.001] 
N -t 1.604820 -n 4 -e 2.997773
N -t 1.604820 -n 2 -e 0.997773
N -t 1.604820 -n 1 -e 0.997716
N -t 1.604820 -n 3 -e 2.997888
r 1.605123651 _1_ MAC  --- 0 CTS 38 [3f4 1 0 0] [energy 0.997716 ei 0.000 es 0.000 et 0.001 er 0.002] 
s 1.605133651 _1_ MAC  --- 0 ARP 86 [13a 0 1 806] [energy 0.997716 ei 0.000 es 0.000 et 0.001 er 0.002] ------- [REPLY 1/1 0/0]
N -t 1.605134 -n 4 -e 2.997429
N -t 1.605134 -n 0 -e 0.997270
N -t 1.605134 -n 3 -e 2.997544
N -t 1.605134 -n 2 -e 0.997429
r 1.605821984 _0_ MAC  --- 0 ARP 28 [13a 0 1 806] [energy 0.997270 ei 0.000 es 0.000 et 0.001 er 0.002] ------- [REPLY 1/1 0/0]
s 1.605831984 _0_ MAC  --- 0 ACK 38 [0 1 0 0] [energy 0.997270 ei 0.000 es 0.000 et 0.001 er 0.002] 
N -t 1.605832 -n 4 -e 2.997277
N -t 1.605832 -n 2 -e 0.997277
N -t 1.605832 -n 1 -e 0.997110
N -t 1.605832 -n 3 -e 2.997392
r 1.606136317 _1_ MAC  --- 0 ACK 38 [0 1 0 0] [energy 0.997110 ei 0.000 es 0.000 et 0.001 er 0.002] 
s 1.606585984 _0_ MAC  --- 0 RTS 44 [6ce 1 0 0] [energy 0.997069 ei 0.000 es 0.000 et 0.001 er 0.002] 
N -t 1.606586 -n 4 -e 2.997101
N -t 1.606586 -n 2 -e 0.997101
N -t 1.606586 -n 1 -e 0.996934
N -t 1.606586 -n 3 -e 2.997216
r 1.606938317 _1_ MAC  --- 0 RTS 44 [6ce 1 0 0] [energy 0.996934 ei 0.000 es 0.000 et 0.001 er 0.002] 
s 1.606948317 _1_ MAC  --- 0 CTS 38 [594 0 0 0] [energy 0.996934 ei 0.000 es 0.000 et 0.001 er 0.002] 
N -t 1.606949 -n 4 -e 2.996949
N -t 1.606949 -n 0 -e 0.996685
N -t 1.606949 -n 3 -e 2.997064
N -t 1.606949 -n 2 -e 0.996949
r 1.607252651 _0_ MAC  --- 0 CTS 38 [594 0 0 0] [energy 0.996685 ei 0.000 es 0.000 et 0.002 er 0.002] 
s 1.607262651 _0_ MAC  --- 3 tcp 138 [13a 1 0 800] [energy 0.996685 ei 0.000 es 0.000 et 0.002 er 0.002] ------- [0:0 1:0 32 1] [0 0] 0 0
N -t 1.607263 -n 4 -e 2.996397
N -t 1.607263 -n 2 -e 0.996397
N -t 1.607263 -n 1 -e 0.996182
N -t 1.607263 -n 3 -e 2.996512
r 1.608366984 _1_ MAC  --- 3 tcp 80 [13a 1 0 800] [energy 0.996182 ei 0.000 es 0.000 et 0.001 er 0.002] ------- [0:0 1:0 32 1] [0 0] 1 0
s 1.608376984 _1_ MAC  --- 0 ACK 38 [0 0 0 0] [energy 0.996182 ei 0.000 es 0.000 et 0.001 er 0.002] 
N -t 1.608377 -n 4 -e 2.996245
N -t 1.608377 -n 0 -e 0.995804
N -t 1.608377 -n 3 -e 2.996360
N -t 1.608377 -n 2 -e 0.996245
r 1.608391984 _1_ AGT  --- 3 tcp 80 [13a 1 0 800] [energy 0.995981 ei 0.000 es 0.000 et 0.002 er 0.002] ------- [0:0 1:0 32 1] [0 0] 1 0
s 1.608391984 _1_ AGT  --- 5 ack 40 [0 0 0 0] [energy 0.995981 ei 0.000 es 0.000 et 0.002 er 0.002] ------- [1:0 0:0 32 0] [0 0] 0 0
r 1.608391984 _1_ RTR  --- 5 ack 40 [0 0 0 0] [energy 0.995981 ei 0.000 es 0.000 et 0.002 er 0.002] ------- [1:0 0:0 32 0] [0 0] 0 0
s 1.608391984 _1_ RTR  --- 5 ack 60 [0 0 0 0] [energy 0.995981 ei 0.000 es 0.000 et 0.002 er 0.002] ------- [1:0 0:0 32 0] [0 0] 0 0
r 1.608681317 _0_ MAC  --- 0 ACK 38 [0 0 0 0] [energy 0.995804 ei 0.000 es 0.000 et 0.002 er 0.002] 
s 1.608890984 _1_ MAC  --- 0 RTS 44 [62e 0 1 0] [energy 0.995981 ei 0.000 es 0.000 et 0.002 er 0.002] 
N -t 1.608891 -n 4 -e 2.996069
N -t 1.608891 -n 0 -e 0.995628
N -t 1.608891 -n 3 -e 2.996184
N -t 1.608891 -n 2 -e 0.996069
r 1.609243317 _0_ MAC  --- 0 RTS 44 [62e 0 1 0] [energy 0.995628 ei 0.000 es 0.000 et 0.002 er 0.002] 
s 1.609253317 _0_ MAC  --- 0 CTS 38 [4f4 1 0 0] [energy 0.995628 ei 0.000 es 0.000 et 0.002 er 0.002] 
N -t 1.609254 -n 4 -e 2.995917
N -t 1.609254 -n 2 -e 0.995917
N -t 1.609254 -n 1 -e 0.995597
N -t 1.609254 -n 3 -e 2.996032
r 1.609557651 _1_ MAC  --- 0 CTS 38 [4f4 1 0 0] [energy 0.995597 ei 0.000 es 0.000 et 0.002 er 0.003] 
s 1.609567651 _1_ MAC  --- 5 ack 118 [13a 0 1 800] [energy 0.995597 ei 0.000 es 0.000 et 0.002 er 0.003] ------- [1:0 0:0 32 0] [0 0] 0 0
N -t 1.609568 -n 4 -e 2.995445
N -t 1.609568 -n 0 -e 0.994956
N -t 1.609568 -n 3 -e 2.995560
N -t 1.609568 -n 2 -e 0.995445
r 1.610511984 _0_ MAC  --- 5 ack 60 [13a 0 1 800] [energy 0.994956 ei 0.000 es 0.000 et 0.002 er 0.003] ------- [1:0 0:0 32 0] [0 0] 1 0
s 1.610521984 _0_ MAC  --- 0 ACK 38 [0 1 0 0] [energy 0.994956 ei 0.000 es 0.000 et 0.002 er 0.003] 
N -t 1.610522 -n 4 -e 2.995293
N -t 1.610522 -n 2 -e 0.995293
N -t 1.610522 -n 1 -e 0.994822
N -t 1.610522 -n 3 -e 2.995408
r 1.610536984 _0_ AGT  --- 5 ack 60 [13a 0 1 800] [energy 0.994755 ei 0.000 es 0.000 et 0.003 er 0.003] ------- [1:0 0:0 32 0] [0 0] 1 0
s 1.610536984 _0_ AGT  --- 6 tcp 1540 [0 0 0 0] [energy 0.994755 ei 0.000 es 0.000 et 0.003 er 0.003] ------- [0:0 1:0 32 0] [1 0] 0 0
r 1.610536984 _0_ RTR  --- 6 tcp 1540 [0 0 0 0] [energy 0.994755 ei 0.000 es 0.000 et 0.003 er 0.003] ------- [0:0 1:0 32 0] [1 0] 0 0
s 1.610536984 _0_ RTR  --- 6 tcp 1560 [0 0 0 0] [energy 0.994755 ei 0.000 es 0.000 et 0.003 er 0.003] ------- [0:0 1:0 32 1] [1 0] 0 0
s 1.610536984 _0_ AGT  --- 7 tcp 1540 [0 0 0 0] [energy 0.994755 ei 0.000 es 0.000 et 0.003 er 0.003] ------- [0:0 1:0 32 0] [2 0] 0 0
r 1.610536984 _0_ RTR  --- 7 tcp 1540 [0 0 0 0] [energy 0.994755 ei 0.000 es 0.000 et 0.003 er 0.003] ------- [0:0 1:0 32 0] [2 0] 0 0
s 1.610536984 _0_ RTR  --- 7 tcp 1560 [0 0 0 0] [energy 0.994755 ei 0.000 es 0.000 et 0.003 er 0.003] ------- [0:0 1:0 32 1] [2 0] 0 0
r 1.610826317 _1_ MAC  --- 0 ACK 38 [0 1 0 0] [energy 0.994822 ei 0.000 es 0.000 et 0.002 er 0.003] 
s 1.611095984 _0_ MAC  --- 0 RTS 44 [350e 1 0 0] [energy 0.994755 ei 0.000 es 0.000 et 0.003 er 0.003] 
N -t 1.611096 -n 4 -e 2.995117
N -t 1.611096 -n 2 -e 0.995117
N -t 1.611096 -n 1 -e 0.994646
N -t 1.611096 -n 3 -e 2.995232
r 1.611448317 _1_ MAC  --- 0 RTS 44 [350e 1 0 0] [energy 0.994646 ei 0.000 es 0.000 et 0.002 er 0.003] 
s 1.611458317 _1_ MAC  --- 0 CTS 38 [33d4 0 0 0] [energy 0.994646 ei 0.000 es 0.000 et 0.002 er 0.003] 
N -t 1.611459 -n 4 -e 2.994965
N -t 1.611459 -n 0 -e 0.994371
N -t 1.611459 -n 3 -e 2.995080
N -t 1.611459 -n 2 -e 0.994965
r 1.611762651 _0_ MAC  --- 0 CTS 38 [33d4 0 0 0] [energy 0.994371 ei 0.000 es 0.000 et 0.003 er 0.003] 
s 1.611772651 _0_ MAC  --- 6 tcp 1618 [13a 1 0 800] [energy 0.994371 ei 0.000 es 0.000 et 0.003 er 0.003] ------- [0:0 1:0 32 1] [1 0] 0 0
N -t 1.611773 -n 4 -e 2.988493
N -t 1.611773 -n 2 -e 0.988493
N -t 1.611773 -n 1 -e 0.987973
N -t 1.611773 -n 3 -e 2.988608
r 1.624716984 _1_ MAC  --- 6 tcp 1560 [13a 1 0 800] [energy 0.987973 ei 0.000 es 0.000 et 0.003 er 0.009] ------- [0:0 1:0 32 1] [1 0] 1 0
s 1.624726984 _1_ MAC  --- 0 ACK 38 [0 0 0 0] [energy 0.987973 ei 0.000 es 0.000 et 0.003 er 0.009] 
N -t 1.624727 -n 4 -e 2.988341
N -t 1.624727 -n 0 -e 0.985676
N -t 1.624727 -n 3 -e 2.988456
N -t 1.624727 -n 2 -e 0.988341
r 1.624741984 _1_ AGT  --- 6 tcp 1560 [13a 1 0 800] [energy 0.987772 ei 0.000 es 0.000 et 0.003 er 0.009] ------- [0:0 1:0 32 1] [1 0] 1 0
s 1.624741984 _1_ AGT  --- 8 ack 40 [0 0 0 0] [energy 0.987772 ei 0.000 es 0.000 et 0.003 er 0.009] ------- [1:0 0:0 32 0] [1 0] 0 0
r 1.624741984 _1_ RTR  --- 8 ack 40 [0 0 0 0] [energy 0.987772 ei 0.000 es 0.000 et 0.003 er 0.009] ------- [1:0 0:0 32 0] [1 0] 0 0
s 1.624741984 _1_ RTR  --- 8 ack 60 [0 0 0 0] [energy 0.987772 ei 0.000 es 0.000 et 0.003 er 0.009] ------- [1:0 0:0 32 0] [1 0] 0 0
r 1.625031317 _0_ MAC  --- 0 ACK 38 [0 0 0 0] [energy 0.985676 ei 0.000 es 0.000 et 0.011 er 0.003] 
s 1.625380984 _1_ MAC  --- 0 RTS 44 [62e 0 1 0] [energy 0.987772 ei 0.000 es 0.000 et 0.003 er 0.009] 
N -t 1.625381 -n 4 -e 2.988165
N -t 1.625381 -n 0 -e 0.985500
N -t 1.625381 -n 3 -e 2.988280
N -t 1.625381 -n 2 -e 0.988165
r 1.625733317 _0_ MAC  --- 0 RTS 44 [62e 0 1 0] [energy 0.985500 ei 0.000 es 0.000 et 0.011 er 0.003] 
s 1.625743317 _0_ MAC  --- 0 CTS 38 [4f4 1 0 0] [energy 0.985500 ei 0.000 es 0.000 et 0.011 er 0.003] 
N -t 1.625744 -n 4 -e 2.988013
N -t 1.625744 -n 2 -e 0.988013
N -t 1.625744 -n 1 -e 0.987388
N -t 1.625744 -n 3 -e 2.988128
r 1.626047651 _1_ MAC  --- 0 CTS 38 [4f4 1 0 0] [energy 0.987388 ei 0.000 es 0.000 et 0.003 er 0.010] 
s 1.626057651 _1_ MAC  --- 8 ack 118 [13a 0 1 800] [energy 0.987388 ei 0.000 es 0.000 et 0.003 er 0.010] ------- [1:0 0:0 32 0] [1 0] 0 0
N -t 1.626058 -n 4 -e 2.987541
N -t 1.626058 -n 0 -e 0.984827
N -t 1.626058 -n 3 -e 2.987656
N -t 1.626058 -n 2 -e 0.987541
r 1.627001984 _0_ MAC  --- 8 ack 60 [13a 0 1 800] [energy 0.984827 ei 0.000 es 0.000 et 0.012 er 0.004] ------- [1:0 0:0 32 0] [1 0] 1 0
s 1.627011984 _0_ MAC  --- 0 ACK 38 [0 1 0 0] [energy 0.984827 ei 0.000 es 0.000 et 0.012 er 0.004] 
N -t 1.627012 -n 4 -e 2.987389
N -t 1.627012 -n 2 -e 0.987389
N -t 1.627012 -n 1 -e 0.986613
N -t 1.627012 -n 3 -e 2.987504
r 1.627026984 _0_ AGT  --- 8 ack 60 [13a 0 1 800] [energy 0.984627 ei 0.000 es 0.000 et 0.012 er 0.004] ------- [1:0 0:0 32 0] [1 0] 1 0
s 1.627026984 _0_ AGT  --- 9 tcp 1540 [0 0 0 0] [energy 0.984627 ei 0.000 es 0.000 et 0.012 er 0.004] ------- [0:0 1:0 32 0] [3 0] 0 0
r 1.627026984 _0_ RTR  --- 9 tcp 1540 [0 0 0 0] [energy 0.984627 ei 0.000 es 0.000 et 0.012 er 0.004] ------- [0:0 1:0 32 0] [3 0] 0 0
s 1.627026984 _0_ RTR  --- 9 tcp 1560 [0 0 0 0] [energy 0.984627 ei 0.000 es 0.000 et 0.012 er 0.004] ------- [0:0 1:0 32 1] [3 0] 0 0
s 1.627026984 _0_ AGT  --- 10 tcp 1540 [0 0 0 0] [energy 0.984627 ei 0.000 es 0.000 et 0.012 er 0.004] ------- [0:0 1:0 32 0] [4 0] 0 0
r 1.627026984 _0_ RTR  --- 10 tcp 1540 [0 0 0 0] [energy 0.984627 ei 0.000 es 0.000 et 0.012 er 0.004] ------- [0:0 1:0 32 0] [4 0] 0 0
s 1.627026984 _0_ RTR  --- 10 tcp 1560 [0 0 0 0] [energy 0.984627 ei 0.000 es 0.000 et 0.012 er 0.004] ------- [0:0 1:0 32 1] [4 0] 0 0
r 1.627316317 _1_ MAC  --- 0 ACK 38 [0 1 0 0] [energy 0.986613 ei 0.000 es 0.000 et 0.004 er 0.010] 
s 1.627445984 _0_ MAC  --- 0 RTS 44 [350e 1 0 0] [energy 0.984627 ei 0.000 es 0.000 et 0.012 er 0.004] 
N -t 1.627446 -n 4 -e 2.987213
N -t 1.627446 -n 2 -e 0.987213
N -t 1.627446 -n 1 -e 0.986437
N -t 1.627446 -n 3 -e 2.987328
r 1.627798317 _1_ MAC  --- 0 RTS 44 [350e 1 0 0] [energy 0.986437 ei 0.000 es 0.000 et 0.004 er 0.010] 
s 1.627808317 _1_ MAC  --- 0 CTS 38 [33d4 0 0 0] [energy 0.986437 ei 0.000 es 0.000 et 0.004 er 0.010] 
N -t 1.627809 -n 4 -e 2.987061
N -t 1.627809 -n 0 -e 0.984242
N -t 1.627809 -n 3 -e 2.987176
N -t 1.627809 -n 2 -e 0.987061
r 1.628112651 _0_ MAC  --- 0 CTS 38 [33d4 0 0 0] [energy 0.984242 ei 0.000 es 0.000 et 0.012 er 0.004] 
s 1.628122651 _0_ MAC  --- 7 tcp 1618 [13a 1 0 800] [energy 0.984242 ei 0.000 es 0.000 et 0.012 er 0.004] ------- [0:0 1:0 32 1] [2 0] 0 0
N -t 1.628123 -n 4 -e 2.980589
N -t 1.628123 -n 2 -e 0.980589
N -t 1.628123 -n 1 -e 0.979764
N -t 1.628123 -n 3 -e 2.980704
s 1.637007294 _3_ RTR  --- 11 message 32 [0 0 0 0] [energy 2.980704 ei 0.000 es 0.000 et 0.000 er 0.019] ------- [3:255 -1:255 32 0] 
r 1.641066984 _1_ MAC  --- 7 tcp 1560 [13a 1 0 800] [energy 0.979764 ei 0.000 es 0.000 et 0.004 er 0.016] ------- [0:0 1:0 32 1] [2 0] 1 0
s 1.641076984 _1_ MAC  --- 0 ACK 38 [0 0 0 0] [energy 0.979764 ei 0.000 es 0.000 et 0.004 er 0.016] 
N -t 1.641077 -n 4 -e 2.980437
N -t 1.641077 -n 0 -e 0.975547
N -t 1.641077 -n 3 -e 2.980552
N -t 1.641077 -n 2 -e 0.980437
r 1.641091984 _1_ AGT  --- 7 tcp 1560 [13a 1 0 800] [energy 0.979564 ei 0.000 es 0.000 et 0.004 er 0.016] ------- [0:0 1:0 32 1] [2 0] 1 0
s 1.641091984 _1_ AGT  --- 12 ack 40 [0 0 0 0] [energy 0.979564 ei 0.000 es 0.000 et 0.004 er 0.016] ------- [1:0 0:0 32 0] [2 0] 0 0
r 1.641091984 _1_ RTR  --- 12 ack 40 [0 0 0 0] [energy 0.979564 ei 0.000 es 0.000 et 0.004 er 0.016] ------- [1:0 0:0 32 0] [2 0] 0 0
s 1.641091984 _1_ RTR  --- 12 ack 60 [0 0 0 0] [energy 0.979564 ei 0.000 es 0.000 et 0.004 er 0.016] ------- [1:0 0:0 32 0] [2 0] 0 0
r 1.641381317 _0_ MAC  --- 0 ACK 38 [0 0 0 0] [energy 0.975547 ei 0.000 es 0.000 et 0.021 er 0.004] 
s 1.641510984 _1_ MAC  --- 0 RTS 44 [62e 0 1 0] [energy 0.979564 ei 0.000 es 0.000 et 0.004 er 0.016] 
N -t 1.641511 -n 4 -e 2.980261
N -t 1.641511 -n 0 -e 0.975371
N -t 1.641511 -n 3 -e 2.980376
N -t 1.641511 -n 2 -e 0.980261
r 1.641863317 _0_ MAC  --- 0 RTS 44 [62e 0 1 0] [energy 0.975371 ei 0.000 es 0.000 et 0.021 er 0.004] 
s 1.641873317 _0_ MAC  --- 0 CTS 38 [4f4 1 0 0] [energy 0.975371 ei 0.000 es 0.000 et 0.021 er 0.004] 
N -t 1.641874 -n 4 -e 2.980109
N -t 1.641874 -n 2 -e 0.980109
N -t 1.641874 -n 1 -e 0.979180
N -t 1.641874 -n 3 -e 2.980224
r 1.642177651 _1_ MAC  --- 0 CTS 38 [4f4 1 0 0] [energy 0.979180 ei 0.000 es 0.000 et 0.004 er 0.017] 
s 1.642187651 _1_ MAC  --- 12 ack 118 [13a 0 1 800] [energy 0.979180 ei 0.000 es 0.000 et 0.004 er 0.017] ------- [1:0 0:0 32 0] [2 0] 0 0
N -t 1.642188 -n 4 -e 2.979637
N -t 1.642188 -n 0 -e 0.974699
N -t 1.642188 -n 3 -e 2.979752
N -t 1.642188 -n 2 -e 0.979637
r 1.643131984 _0_ MAC  --- 12 ack 60 [13a 0 1 800] [energy 0.974699 ei 0.000 es 0.000 et 0.021 er 0.004] ------- [1:0 0:0 32 0] [2 0] 1 0
s 1.643141984 _0_ MAC  --- 0 ACK 38 [0 1 0 0] [energy 0.974699 ei 0.000 es 0.000 et 0.021 er 0.004] 
N -t 1.643142 -n 4 -e 2.979485
N -t 1.643142 -n 2 -e 0.979485
N -t 1.643142 -n 1 -e 0.978404
N -t 1.643142 -n 3 -e 2.979600
r 1.643156984 _0_ AGT  --- 12 ack 60 [13a 0 1 800] [energy 0.974498 ei 0.000 es 0.000 et 0.021 er 0.004] ------- [1:0 0:0 32 0] [2 0] 1 0
s 1.643156984 _0_ AGT  --- 13 tcp 1540 [0 0 0 0] [energy 0.974498 ei 0.000 es 0.000 et 0.021 er 0.004] ------- [0:0 1:0 32 0] [5 0] 0 0
r 1.643156984 _0_ RTR  --- 13 tcp 1540 [0 0 0 0] [energy 0.974498 ei 0.000 es 0.000 et 0.021 er 0.004] ------- [0:0 1:0 32 0] [5 0] 0 0
s 1.643156984 _0_ RTR  --- 13 tcp 1560 [0 0 0 0] [energy 0.974498 ei 0.000 es 0.000 et 0.021 er 0.004] ------- [0:0 1:0 32 1] [5 0] 0 0
s 1.643156984 _0_ AGT  --- 14 tcp 1540 [0 0 0 0] [energy 0.974498 ei 0.000 es 0.000 et 0.021 er 0.004] ------- [0:0 1:0 32 0] [6 0] 0 0
r 1.643156984 _0_ RTR  --- 14 tcp 1540 [0 0 0 0] [energy 0.974498 ei 0.000 es 0.000 et 0.021 er 0.004] ------- [0:0 1:0 32 0] [6 0] 0 0
s 1.643156984 _0_ RTR  --- 14 tcp 1560 [0 0 0 0] [energy 0.974498 ei 0.000 es 0.000 et 0.021 er 0.004] ------- [0:0 1:0 32 1] [6 0] 0 0
r 1.643446317 _1_ MAC  --- 0 ACK 38 [0 1 0 0] [energy 0.978404 ei 0.000 es 0.000 et 0.005 er 0.017] 
s 1.643535984 _0_ MAC  --- 0 RTS 44 [350e 1 0 0] [energy 0.974498 ei 0.000 es 0.000 et 0.021 er 0.004] 
N -t 1.643536 -n 4 -e 2.979309
N -t 1.643536 -n 2 -e 0.979309
N -t 1.643536 -n 1 -e 0.978228
N -t 1.643536 -n 3 -e 2.979424
r 1.643888317 _1_ MAC  --- 0 RTS 44 [350e 1 0 0] [energy 0.978228 ei 0.000 es 0.000 et 0.005 er 0.017] 
s 1.643898317 _1_ MAC  --- 0 CTS 38 [33d4 0 0 0] [energy 0.978228 ei 0.000 es 0.000 et 0.005 er 0.017] 
N -t 1.643899 -n 4 -e 2.979157
N -t 1.643899 -n 0 -e 0.974114
N -t 1.643899 -n 3 -e 2.979272
N -t 1.643899 -n 2 -e 0.979157
r 1.644202651 _0_ MAC  --- 0 CTS 38 [33d4 0 0 0] [energy 0.974114 ei 0.000 es 0.000 et 0.021 er 0.005] 
s 1.644212651 _0_ MAC  --- 9 tcp 1618 [13a 1 0 800] [energy 0.974114 ei 0.000 es 0.000 et 0.021 er 0.005] ------- [0:0 1:0 32 1] [3 0] 0 0
N -t 1.644213 -n 4 -e 2.972685
N -t 1.644213 -n 2 -e 0.972685
N -t 1.644213 -n 1 -e 0.971556
N -t 1.644213 -n 3 -e 2.972800
r 1.657156984 _1_ MAC  --- 9 tcp 1560 [13a 1 0 800] [energy 0.971556 ei 0.000 es 0.000 et 0.005 er 0.023] ------- [0:0 1:0 32 1] [3 0] 1 0
s 1.657166984 _1_ MAC  --- 0 ACK 38 [0 0 0 0] [energy 0.971556 ei 0.000 es 0.000 et 0.005 er 0.023] 
N -t 1.657167 -n 4 -e 2.972533
N -t 1.657167 -n 0 -e 0.965419
N -t 1.657167 -n 3 -e 2.972648
N -t 1.657167 -n 2 -e 0.972533
r 1.657181984 _1_ AGT  --- 9 tcp 1560 [13a 1 0 800] [energy 0.971355 ei 0.000 es 0.000 et 0.005 er 0.023] ------- [0:0 1:0 32 1] [3 0] 1 0
s 1.657181984 _1_ AGT  --- 15 ack 40 [0 0 0 0] [energy 0.971355 ei 0.000 es 0.000 et 0.005 er 0.023] ------- [1:0 0:0 32 0] [3 0] 0 0
r 1.657181984 _1_ RTR  --- 15 ack 40 [0 0 0 0] [energy 0.971355 ei 0.000 es 0.000 et 0.005 er 0.023] ------- [1:0 0:0 32 0] [3 0] 0 0
s 1.657181984 _1_ RTR  --- 15 ack 60 [0 0 0 0] [energy 0.971355 ei 0.000 es 0.000 et 0.005 er 0.023] ------- [1:0 0:0 32 0] [3 0] 0 0
r 1.657471317 _0_ MAC  --- 0 ACK 38 [0 0 0 0] [energy 0.965419 ei 0.000 es 0.000 et 0.030 er 0.005] 
s 1.657641317 _3_ MAC  --- 11 message 90 [0 ffffffff 3 800] [energy 2.972648 ei 0.000 es 0.000 et 0.000 er 0.027] ------- [3:255 -1:255 32 0] 
N -t 1.657642 -n 4 -e 2.972173
N -t 1.657642 -n 1 -e 0.970995
N -t 1.657642 -n 2 -e 0.972173
N -t 1.657642 -n 0 -e 0.965059
r 1.658361553 _4_ MAC  --- 11 message 32 [0 ffffffff 3 800] [energy 2.972173 ei 0.000 es 0.000 et 0.000 er 0.027] ------- [3:255 -1:255 32 0] 
r 1.658361651 _1_ MAC  --- 11 message 32 [0 ffffffff 3 800] [energy 0.970995 ei 0.000 es 0.000 et 0.005 er 0.024] ------- [3:255 -1:255 32 0] 
r 1.658361651 _2_ MAC  --- 11 message 32 [0 ffffffff 3 800] [energy 0.972173 ei 0.000 es 0.000 et 0.000 er 0.027] ------- [3:255 -1:255 32 0] 
r 1.658361789 _0_ MAC  --- 11 message 32 [0 ffffffff 3 800] [energy 0.965059 ei 0.000 es 0.000 et 0.030 er 0.005] ------- [3:255 -1:255 32 0] 
r 1.658386553 _4_ RTR  --- 11 message 32 [0 ffffffff 3 800] [energy 2.972173 ei 0.000 es 0.000 et 0.000 er 0.027] ------- [3:255 -1:255 32 0] 
r 1.658386651 _1_ RTR  --- 11 message 32 [0 ffffffff 3 800] [energy 0.970995 ei 0.000 es 0.000 et 0.005 er 0.024] ------- [3:255 -1:255 32 0] 
r 1.658386651 _2_ RTR  --- 11 message 32 [0 ffffffff 3 800] [energy 0.972173 ei 0.000 es 0.000 et 0.000 er 0.027] ------- [3:255 -1:255 32 0] 
r 1.658386789 _0_ RTR  --- 11 message 32 [0 ffffffff 3 800] [energy 0.965059 ei 0.000 es 0.000 et 0.030 er 0.005] ------- [3:255 -1:255 32 0] 
s 1.658511789 _0_ MAC  --- 0 RTS 44 [350e 1 0 0] [energy 0.965059 ei 0.000 es 0.000 et 0.030 er 0.005] 
N -t 1.658512 -n 4 -e 2.971997
N -t 1.658512 -n 2 -e 0.971997
N -t 1.658512 -n 1 -e 0.970819
N -t 1.658512 -n 3 -e 2.971997
r 1.658864122 _1_ MAC  --- 0 RTS 44 [350e 1 0 0] [energy 0.970819 ei 0.000 es 0.000 et 0.005 er 0.024] 
s 1.658874122 _1_ MAC  --- 0 CTS 38 [33d4 0 0 0] [energy 0.970819 ei 0.000 es 0.000 et 0.005 er 0.024] 
N -t 1.658874 -n 4 -e 2.971845
N -t 1.658874 -n 0 -e 0.964674
N -t 1.658874 -n 3 -e 2.971845
N -t 1.658875 -n 2 -e 0.971845
r 1.659178455 _0_ MAC  --- 0 CTS 38 [33d4 0 0 0] [energy 0.964674 ei 0.000 es 0.000 et 0.030 er 0.005] 
s 1.659188455 _0_ MAC  --- 10 tcp 1618 [13a 1 0 800] [energy 0.964674 ei 0.000 es 0.000 et 0.030 er 0.005] ------- [0:0 1:0 32 1] [4 0] 0 0
N -t 1.659189 -n 4 -e 2.965373
N -t 1.659189 -n 2 -e 0.965373
N -t 1.659189 -n 1 -e 0.964147
N -t 1.659189 -n 3 -e 2.965373
r 1.672132789 _1_ MAC  --- 10 tcp 1560 [13a 1 0 800] [energy 0.964147 ei 0.000 es 0.000 et 0.006 er 0.030] ------- [0:0 1:0 32 1] [4 0] 1 0
s 1.672142789 _1_ MAC  --- 0 ACK 38 [0 0 0 0] [energy 0.964147 ei 0.000 es 0.000 et 0.006 er 0.030] 
N -t 1.672143 -n 4 -e 2.965221
N -t 1.672143 -n 0 -e 0.955979
N -t 1.672143 -n 3 -e 2.965221
N -t 1.672143 -n 2 -e 0.965221
r 1.672157789 _1_ AGT  --- 10 tcp 1560 [13a 1 0 800] [energy 0.963946 ei 0.000 es 0.000 et 0.006 er 0.030] ------- [0:0 1:0 32 1] [4 0] 1 0
s 1.672157789 _1_ AGT  --- 16 ack 40 [0 0 0 0] [energy 0.963946 ei 0.000 es 0.000 et 0.006 er 0.030] ------- [1:0 0:0 32 0] [4 0] 0 0
r 1.672157789 _1_ RTR  --- 16 ack 40 [0 0 0 0] [energy 0.963946 ei 0.000 es 0.000 et 0.006 er 0.030] ------- [1:0 0:0 32 0] [4 0] 0 0
s 1.672157789 _1_ RTR  --- 16 ack 60 [0 0 0 0] [energy 0.963946 ei 0.000 es 0.000 et 0.006 er 0.030] ------- [1:0 0:0 32 0] [4 0] 0 0
r 1.672447122 _0_ MAC  --- 0 ACK 38 [0 0 0 0] [energy 0.955979 ei 0.000 es 0.000 et 0.039 er 0.005] 
s 1.672776789 _1_ MAC  --- 0 RTS 44 [62e 0 1 0] [energy 0.963946 ei 0.000 es 0.000 et 0.006 er 0.030] 
N -t 1.672777 -n 4 -e 2.965045
N -t 1.672777 -n 0 -e 0.955803
N -t 1.672777 -n 3 -e 2.965045
N -t 1.672777 -n 2 -e 0.965045
r 1.673129122 _0_ MAC  --- 0 RTS 44 [62e 0 1 0] [energy 0.955803 ei 0.000 es 0.000 et 0.039 er 0.006] 
s 1.673139122 _0_ MAC  --- 0 CTS 38 [4f4 1 0 0] [energy 0.955803 ei 0.000 es 0.000 et 0.039 er 0.006] 
N -t 1.673139 -n 4 -e 2.964893
N -t 1.673139 -n 2 -e 0.964893
N -t 1.673139 -n 1 -e 0.963562
N -t 1.673140 -n 3 -e 2.964893
r 1.673443455 _1_ MAC  --- 0 CTS 38 [4f4 1 0 0] [energy 0.963562 ei 0.000 es 0.000 et 0.006 er 0.030] 
s 1.673453455 _1_ MAC  --- 15 ack 118 [13a 0 1 800] [energy 0.963562 ei 0.000 es 0.000 et 0.006 er 0.030] ------- [1:0 0:0 32 0] [3 0] 0 0
N -t 1.673454 -n 4 -e 2.964421
N -t 1.673454 -n 0 -e 0.955131
N -t 1.673454 -n 3 -e 2.964421
N -t 1.673454 -n 2 -e 0.964421
r 1.674397789 _0_ MAC  --- 15 ack 60 [13a 0 1 800] [energy 0.955131 ei 0.000 es 0.000 et 0.039 er 0.006] ------- [1:0 0:0 32 0] [3 0] 1 0
s 1.674407789 _0_ MAC  --- 0 ACK 38 [0 1 0 0] [energy 0.955131 ei 0.000 es 0.000 et 0.039 er 0.006] 
N -t 1.674408 -n 4 -e 2.964269
N -t 1.674408 -n 2 -e 0.964269
N -t 1.674408 -n 1 -e 0.962787
N -t 1.674408 -n 3 -e 2.964269
r 1.674422789 _0_ AGT  --- 15 ack 60 [13a 0 1 800] [energy 0.954930 ei 0.000 es 0.000 et 0.039 er 0.006] ------- [1:0 0:0 32 0] [3 0] 1 0
s 1.674422789 _0_ AGT  --- 17 tcp 1540 [0 0 0 0] [energy 0.954930 ei 0.000 es 0.000 et 0.039 er 0.006] ------- [0:0 1:0 32 0] [7 0] 0 0
r 1.674422789 _0_ RTR  --- 17 tcp 1540 [0 0 0 0] [energy 0.954930 ei 0.000 es 0.000 et 0.039 er 0.006] ------- [0:0 1:0 32 0] [7 0] 0 0
s 1.674422789 _0_ RTR  --- 17 tcp 1560 [0 0 0 0] [energy 0.954930 ei 0.000 es 0.000 et 0.039 er 0.006] ------- [0:0 1:0 32 1] [7 0] 0 0
s 1.674422789 _0_ AGT  --- 18 tcp 1540 [0 0 0 0] [energy 0.954930 ei 0.000 es 0.000 et 0.039 er 0.006] ------- [0:0 1:0 32 0] [8 0] 0 0
r 1.674422789 _0_ RTR  --- 18 tcp 1540 [0 0 0 0] [energy 0.954930 ei 0.000 es 0.000 et 0.039 er 0.006] ------- [0:0 1:0 32 0] [8 0] 0 0
s 1.674422789 _0_ RTR  --- 18 tcp 1560 [0 0 0 0] [energy 0.954930 ei 0.000 es 0.000 et 0.039 er 0.006] ------- [0:0 1:0 32 1] [8 0] 0 0
r 1.674712122 _1_ MAC  --- 0 ACK 38 [0 1 0 0] [energy 0.962787 ei 0.000 es 0.000 et 0.007 er 0.031] 
s 1.674822122 _1_ MAC  --- 0 RTS 44 [62e 0 1 0] [energy 0.962787 ei 0.000 es 0.000 et 0.007 er 0.031] 
N -t 1.674822 -n 4 -e 2.964093
N -t 1.674822 -n 0 -e 0.954754
N -t 1.674822 -n 3 -e 2.964093
N -t 1.674823 -n 2 -e 0.964093
r 1.675174455 _0_ MAC  --- 0 RTS 44 [62e 0 1 0] [energy 0.954754 ei 0.000 es 0.000 et 0.039 er 0.006] 
s 1.675184455 _0_ MAC  --- 0 CTS 38 [4f4 1 0 0] [energy 0.954754 ei 0.000 es 0.000 et 0.039 er 0.006] 
N -t 1.675185 -n 4 -e 2.963941
N -t 1.675185 -n 2 -e 0.963941
N -t 1.675185 -n 1 -e 0.962402
N -t 1.675185 -n 3 -e 2.963941
r 1.675488789 _1_ MAC  --- 0 CTS 38 [4f4 1 0 0] [energy 0.962402 ei 0.000 es 0.000 et 0.007 er 0.031] 