s 0.184410103 _0_ RTR  --- 0 message 32 [0 0 0 0] ------- [0:255 -1:255 32 0] 
s 0.184845103 _0_ MAC  --- 0 message 90 [0 ffffffff 0 800] ------- [0:255 -1:255 32 0] 
r 0.185565436 _2_ MAC  --- 0 message 32 [0 ffffffff 0 800] ------- [0:255 -1:255 32 0] 
r 0.185565436 _1_ MAC  --- 0 message 32 [0 ffffffff 0 800] ------- [0:255 -1:255 32 0] 
r 0.185565575 _3_ MAC  --- 0 message 32 [0 ffffffff 0 800] ------- [0:255 -1:255 32 0] 
r 0.185590436 _2_ RTR  --- 0 message 32 [0 ffffffff 0 800] ------- [0:255 -1:255 32 0] 
r 0.185590436 _1_ RTR  --- 0 message 32 [0 ffffffff 0 800] ------- [0:255 -1:255 32 0] 
r 0.185590575 _3_ RTR  --- 0 message 32 [0 ffffffff 0 800] ------- [0:255 -1:255 32 0] 
s 0.634286779 _3_ RTR  --- 1 message 32 [0 0 0 0] ------- [3:255 -1:255 32 0] 
s 0.634901779 _3_ MAC  --- 1 message 90 [0 ffffffff 3 800] ------- [3:255 -1:255 32 0] 
r 0.635622112 _1_ MAC  --- 1 message 32 [0 ffffffff 3 800] ------- [3:255 -1:255 32 0] 
r 0.635622112 _2_ MAC  --- 1 message 32 [0 ffffffff 3 800] ------- [3:255 -1:255 32 0] 
r 0.635622250 _0_ MAC  --- 1 message 32 [0 ffffffff 3 800] ------- [3:255 -1:255 32 0] 
r 0.635647112 _1_ RTR  --- 1 message 32 [0 ffffffff 3 800] ------- [3:255 -1:255 32 0] 
r 0.635647112 _2_ RTR  --- 1 message 32 [0 ffffffff 3 800] ------- [3:255 -1:255 32 0] 
r 0.635647250 _0_ RTR  --- 1 message 32 [0 ffffffff 3 800] ------- [3:255 -1:255 32 0] 
s 0.883484847 _1_ RTR  --- 2 message 32 [0 0 0 0] ------- [1:255 -1:255 32 0] 
s 0.883719847 _1_ MAC  --- 2 message 90 [0 ffffffff 1 800] ------- [1:255 -1:255 32 0] 
r 0.884440180 _0_ MAC  --- 2 message 32 [0 ffffffff 1 800] ------- [1:255 -1:255 32 0] 
r 0.884440180 _3_ MAC  --- 2 message 32 [0 ffffffff 1 800] ------- [1:255 -1:255 32 0] 
r 0.884440318 _2_ MAC  --- 2 message 32 [0 ffffffff 1 800] ------- [1:255 -1:255 32 0] 
r 0.884465180 _0_ RTR  --- 2 message 32 [0 ffffffff 1 800] ------- [1:255 -1:255 32 0] 
r 0.884465180 _3_ RTR  --- 2 message 32 [0 ffffffff 1 800] ------- [1:255 -1:255 32 0] 
r 0.884465318 _2_ RTR  --- 2 message 32 [0 ffffffff 1 800] ------- [1:255 -1:255 32 0] 
s 1.000000000 _0_ AGT  --- 3 tcp 40 [0 0 0 0] ------- [0:0 1:0 32 0] [0 0] 0 0
r 1.000000000 _0_ RTR  --- 3 tcp 40 [0 0 0 0] ------- [0:0 1:0 32 0] [0 0] 0 0
s 1.000000000 _0_ RTR  --- 3 tcp 60 [0 0 0 0] ------- [0:0 1:0 32 1] [0 0] 0 0
s 1.000395000 _0_ MAC  --- 0 ARP 86 [0 ffffffff 0 806] ------- [REQUEST 0/0 0/1]
r 1.001083333 _2_ MAC  --- 0 ARP 28 [0 ffffffff 0 806] ------- [REQUEST 0/0 0/1]
r 1.001083333 _1_ MAC  --- 0 ARP 28 [0 ffffffff 0 806] ------- [REQUEST 0/0 0/1]
r 1.001083471 _3_ MAC  --- 0 ARP 28 [0 ffffffff 0 806] ------- [REQUEST 0/0 0/1]
s 1.001338333 _1_ MAC  --- 0 RTS 44 [52e 0 1 0] 
r 1.001690667 _0_ MAC  --- 0 RTS 44 [52e 0 1 0] 
s 1.001700667 _0_ MAC  --- 0 CTS 38 [3f4 1 0 0] 
r 1.002005000 _1_ MAC  --- 0 CTS 38 [3f4 1 0 0] 
s 1.002015000 _1_ MAC  --- 0 ARP 86 [13a 0 1 806] ------- [REPLY 1/1 0/0]
r 1.002703333 _0_ MAC  --- 0 ARP 28 [13a 0 1 806] ------- [REPLY 1/1 0/0]
s 1.002713333 _0_ MAC  --- 0 ACK 38 [0 1 0 0] 
r 1.003017667 _1_ MAC  --- 0 ACK 38 [0 1 0 0] 
s 1.003187333 _0_ MAC  --- 0 RTS 44 [62e 1 0 0] 
r 1.003539667 _1_ MAC  --- 0 RTS 44 [62e 1 0 0] 
s 1.003549667 _1_ MAC  --- 0 CTS 38 [4f4 0 0 0] 
r 1.003854000 _0_ MAC  --- 0 CTS 38 [4f4 0 0 0] 
s 1.003864000 _0_ MAC  --- 3 tcp 118 [13a 1 0 800] ------- [0:0 1:0 32 1] [0 0] 0 0
r 1.004808333 _1_ MAC  --- 3 tcp 60 [13a 1 0 800] ------- [0:0 1:0 32 1] [0 0] 1 0
s 1.004818333 _1_ MAC  --- 0 ACK 38 [0 0 0 0] 
r 1.004833333 _1_ AGT  --- 3 tcp 60 [13a 1 0 800] ------- [0:0 1:0 32 1] [0 0] 1 0
s 1.004833333 _1_ AGT  --- 4 ack 40 [0 0 0 0] ------- [1:0 0:0 32 0] [0 0] 0 0
r 1.004833333 _1_ RTR  --- 4 ack 40 [0 0 0 0] ------- [1:0 0:0 32 0] [0 0] 0 0
s 1.004833333 _1_ RTR  --- 4 ack 60 [0 0 0 0] ------- [1:0 0:0 32 0] [0 0] 0 0
r 1.005122667 _0_ MAC  --- 0 ACK 38 [0 0 0 0] 
s 1.005292333 _1_ MAC  --- 0 RTS 44 [62e 0 1 0] 
r 1.005644667 _0_ MAC  --- 0 RTS 44 [62e 0 1 0] 
s 1.005654667 _0_ MAC  --- 0 CTS 38 [4f4 1 0 0] 
r 1.005959000 _1_ MAC  --- 0 CTS 38 [4f4 1 0 0] 
s 1.005969000 _1_ MAC  --- 4 ack 118 [13a 0 1 800] ------- [1:0 0:0 32 0] [0 0] 0 0
r 1.006913333 _0_ MAC  --- 4 ack 60 [13a 0 1 800] ------- [1:0 0:0 32 0] [0 0] 1 0
s 1.006923333 _0_ MAC  --- 0 ACK 38 [0 1 0 0] 
r 1.006938333 _0_ AGT  --- 4 ack 60 [13a 0 1 800] ------- [1:0 0:0 32 0] [0 0] 1 0
s 1.006938333 _0_ AGT  --- 5 tcp 1540 [0 0 0 0] ------- [0:0 1:0 32 0] [1 0] 0 0
r 1.006938333 _0_ RTR  --- 5 tcp 1540 [0 0 0 0] ------- [0:0 1:0 32 0] [1 0] 0 0
s 1.006938333 _0_ RTR  --- 5 tcp 1560 [0 0 0 0] ------- [0:0 1:0 32 1] [1 0] 0 0
s 1.006938333 _0_ AGT  --- 6 tcp 1540 [0 0 0 0] ------- [0:0 1:0 32 0] [2 0] 0 0
r 1.006938333 _0_ RTR  --- 6 tcp 1540 [0 0 0 0] ------- [0:0 1:0 32 0] [2 0] 0 0
s 1.006938333 _0_ RTR  --- 6 tcp 1560 [0 0 0 0] ------- [0:0 1:0 32 1] [2 0] 0 0
r 1.007227667 _1_ MAC  --- 0 ACK 38 [0 1 0 0] 
s 1.007517333 _0_ MAC  --- 0 RTS 44 [350e 1 0 0] 
r 1.007869667 _1_ MAC  --- 0 RTS 44 [350e 1 0 0] 
s 1.007879667 _1_ MAC  --- 0 CTS 38 [33d4 0 0 0] 
r 1.008184000 _0_ MAC  --- 0 CTS 38 [33d4 0 0 0] 
s 1.008194000 _0_ MAC  --- 5 tcp 1618 [13a 1 0 800] ------- [0:0 1:0 32 1] [1 0] 0 0
r 1.021138333 _1_ MAC  --- 5 tcp 1560 [13a 1 0 800] ------- [0:0 1:0 32 1] [1 0] 1 0
s 1.021148333 _1_ MAC  --- 0 ACK 38 [0 0 0 0] 
r 1.021163333 _1_ AGT  --- 5 tcp 1560 [13a 1 0 800] ------- [0:0 1:0 32 1] [1 0] 1 0
s 1.021163333 _1_ AGT  --- 7 ack 40 [0 0 0 0] ------- [1:0 0:0 32 0] [1 0] 0 0
r 1.021163333 _1_ RTR  --- 7 ack 40 [0 0 0 0] ------- [1:0 0:0 32 0] [1 0] 0 0
s 1.021163333 _1_ RTR  --- 7 ack 60 [0 0 0 0] ------- [1:0 0:0 32 0] [1 0] 0 0
r 1.021452667 _0_ MAC  --- 0 ACK 38 [0 0 0 0] 
s 1.021682667 _0_ MAC  --- 0 RTS 44 [350e 1 0 0] 
r 1.022035000 _1_ MAC  --- 0 RTS 44 [350e 1 0 0] 
s 1.022045000 _1_ MAC  --- 0 CTS 38 [33d4 0 0 0] 
r 1.022349333 _0_ MAC  --- 0 CTS 38 [33d4 0 0 0] 
s 1.022359333 _0_ MAC  --- 6 tcp 1618 [13a 1 0 800] ------- [0:0 1:0 32 1] [2 0] 0 0
r 1.035303667 _1_ MAC  --- 6 tcp 1560 [13a 1 0 800] ------- [0:0 1:0 32 1] [2 0] 1 0
s 1.035313667 _1_ MAC  --- 0 ACK 38 [0 0 0 0] 
r 1.035328667 _1_ AGT  --- 6 tcp 1560 [13a 1 0 800] ------- [0:0 1:0 32 1] [2 0] 1 0
s 1.035328667 _1_ AGT  --- 8 ack 40 [0 0 0 0] ------- [1:0 0:0 32 0] [2 0] 0 0
r 1.035328667 _1_ RTR  --- 8 ack 40 [0 0 0 0] ------- [1:0 0:0 32 0] [2 0] 0 0
s 1.035328667 _1_ RTR  --- 8 ack 60 [0 0 0 0] ------- [1:0 0:0 32 0] [2 0] 0 0
r 1.035618000 _0_ MAC  --- 0 ACK 38 [0 0 0 0] 
s 1.035707667 _1_ MAC  --- 0 RTS 44 [62e 0 1 0] 
r 1.036060000 _0_ MAC  --- 0 RTS 44 [62e 0 1 0] 
s 1.036070000 _0_ MAC  --- 0 CTS 38 [4f4 1 0 0] 
r 1.036374333 _1_ MAC  --- 0 CTS 38 [4f4 1 0 0] 
s 1.036384333 _1_ MAC  --- 7 ack 118 [13a 0 1 800] ------- [1:0 0:0 32 0] [1 0] 0 0
r 1.037328667 _0_ MAC  --- 7 ack 60 [13a 0 1 800] ------- [1:0 0:0 32 0] [1 0] 1 0
s 1.037338667 _0_ MAC  --- 0 ACK 38 [0 1 0 0] 
r 1.037353667 _0_ AGT  --- 7 ack 60 [13a 0 1 800] ------- [1:0 0:0 32 0] [1 0] 1 0
s 1.037353667 _0_ AGT  --- 9 tcp 1540 [0 0 0 0] ------- [0:0 1:0 32 0] [3 0] 0 0
r 1.037353667 _0_ RTR  --- 9 tcp 1540 [0 0 0 0] ------- [0:0 1:0 32 0] [3 0] 0 0
s 1.037353667 _0_ RTR  --- 9 tcp 1560 [0 0 0 0] ------- [0:0 1:0 32 1] [3 0] 0 0
s 1.037353667 _0_ AGT  --- 10 tcp 1540 [0 0 0 0] ------- [0:0 1:0 32 0] [4 0] 0 0
r 1.037353667 _0_ RTR  --- 10 tcp 1540 [0 0 0 0] ------- [0:0 1:0 32 0] [4 0] 0 0
s 1.037353667 _0_ RTR  --- 10 tcp 1560 [0 0 0 0] ------- [0:0 1:0 32 1] [4 0] 0 0
r 1.037643000 _1_ MAC  --- 0 ACK 38 [0 1 0 0] 
s 1.038093000 _1_ MAC  --- 0 RTS 44 [62e 0 1 0] 
r 1.038445333 _0_ MAC  --- 0 RTS 44 [62e 0 1 0] 
s 1.038455333 _0_ MAC  --- 0 CTS 38 [4f4 1 0 0] 
r 1.038759667 _1_ MAC  --- 0 CTS 38 [4f4 1 0 0] 
s 1.038769667 _1_ MAC  --- 8 ack 118 [13a 0 1 800] ------- [1:0 0:0 32 0] [2 0] 0 0
r 1.039714000 _0_ MAC  --- 8 ack 60 [13a 0 1 800] ------- [1:0 0:0 32 0] [2 0] 1 0
s 1.039724000 _0_ MAC  --- 0 ACK 38 [0 1 0 0] 
r 1.039739000 _0_ AGT  --- 8 ack 60 [13a 0 1 800] ------- [1:0 0:0 32 0] [2 0] 1 0
s 1.039739000 _0_ AGT  --- 11 tcp 1540 [0 0 0 0] ------- [0:0 1:0 32 0] [5 0] 0 0
r 1.039739000 _0_ RTR  --- 11 tcp 1540 [0 0 0 0] ------- [0:0 1:0 32 0] [5 0] 0 0
s 1.039739000 _0_ RTR  --- 11 tcp 1560 [0 0 0 0] ------- [0:0 1:0 32 1] [5 0] 0 0
s 1.039739000 _0_ AGT  --- 12 tcp 1540 [0 0 0 0] ------- [0:0 1:0 32 0] [6 0] 0 0
r 1.039739000 _0_ RTR  --- 12 tcp 1540 [0 0 0 0] ------- [0:0 1:0 32 0] [6 0] 0 0
s 1.039739000 _0_ RTR  --- 12 tcp 1560 [0 0 0 0] ------- [0:0 1:0 32 1] [6 0] 0 0
r 1.040028333 _1_ MAC  --- 0 ACK 38 [0 1 0 0] 
s 1.040238000 _0_ MAC  --- 0 RTS 44 [350e 1 0 0] 
r 1.040590333 _1_ MAC  --- 0 RTS 44 [350e 1 0 0] 
s 1.040600333 _1_ MAC  --- 0 CTS 38 [33d4 0 0 0] 
r 1.040904667 _0_ MAC  --- 0 CTS 38 [33d4 0 0 0] 
s 1.040914667 _0_ MAC  --- 9 tcp 1618 [13a 1 0 800] ------- [0:0 1:0 32 1] [3 0] 0 0
r 1.053859000 _1_ MAC  --- 9 tcp 1560 [13a 1 0 800] ------- [0:0 1:0 32 1] [3 0] 1 0
s 1.053869000 _1_ MAC  --- 0 ACK 38 [0 0 0 0] 
r 1.053884000 _1_ AGT  --- 9 tcp 1560 [13a 1 0 800] ------- [0:0 1:0 32 1] [3 0] 1 0
s 1.053884000 _1_ AGT  --- 13 ack 40 [0 0 0 0] ------- [1:0 0:0 32 0] [3 0] 0 0
r 1.053884000 _1_ RTR  --- 13 ack 40 [0 0 0 0] ------- [1:0 0:0 32 0] [3 0] 0 0
s 1.053884000 _1_ RTR  --- 13 ack 60 [0 0 0 0] ------- [1:0 0:0 32 0] [3 0] 0 0
r 1.054173333 _0_ MAC  --- 0 ACK 38 [0 0 0 0] 
s 1.054583333 _0_ MAC  --- 0 RTS 44 [350e 1 0 0] 
r 1.054935667 _1_ MAC  --- 0 RTS 44 [350e 1 0 0] 
s 1.054945667 _1_ MAC  --- 0 CTS 38 [33d4 0 0 0] 
r 1.055250000 _0_ MAC  --- 0 CTS 38 [33d4 0 0 0] 
s 1.055260000 _0_ MAC  --- 10 tcp 1618 [13a 1 0 800] ------- [0:0 1:0 32 1] [4 0] 0 0
r 1.068204333 _1_ MAC  --- 10 tcp 1560 [13a 1 0 800] ------- [0:0 1:0 32 1] [4 0] 1 0
s 1.068214333 _1_ MAC  --- 0 ACK 38 [0 0 0 0] 
r 1.068229333 _1_ AGT  --- 10 tcp 1560 [13a 1 0 800] ------- [0:0 1:0 32 1] [4 0] 1 0
s 1.068229333 _1_ AGT  --- 14 ack 40 [0 0 0 0] ------- [1:0 0:0 32 0] [4 0] 0 0
r 1.068229333 _1_ RTR  --- 14 ack 40 [0 0 0 0] ------- [1:0 0:0 32 0] [4 0] 0 0
s 1.068229333 _1_ RTR  --- 14 ack 60 [0 0 0 0] ------- [1:0 0:0 32 0] [4 0] 0 0
r 1.068518667 _0_ MAC  --- 0 ACK 38 [0 0 0 0] 
s 1.068608333 _1_ MAC  --- 0 RTS 44 [62e 0 1 0] 
s 1.068608667 _0_ MAC  --- 0 RTS 44 [350e 1 0 0] 
s 1.070074667 _0_ MAC  --- 0 RTS 44 [350e 1 0 0] 
r 1.070427000 _1_ MAC  --- 0 RTS 44 [350e 1 0 0] 
s 1.070437000 _1_ MAC  --- 0 CTS 38 [33d4 0 0 0] 
r 1.070741333 _0_ MAC  --- 0 CTS 38 [33d4 0 0 0] 
s 1.070751333 _0_ MAC  --- 11 tcp 1618 [13a 1 0 800] ------- [0:0 1:0 32 1] [5 0] 0 0
r 1.083695667 _1_ MAC  --- 11 tcp 1560 [13a 1 0 800] ------- [0:0 1:0 32 1] [5 0] 1 0
s 1.083705667 _1_ MAC  --- 0 ACK 38 [0 0 0 0] 
r 1.083720667 _1_ AGT  --- 11 tcp 1560 [13a 1 0 800] ------- [0:0 1:0 32 1] [5 0] 1 0
s 1.083720667 _1_ AGT  --- 15 ack 40 [0 0 0 0] ------- [1:0 0:0 32 0] [5 0] 0 0
r 1.083720667 _1_ RTR  --- 15 ack 40 [0 0 0 0] ------- [1:0 0:0 32 0] [5 0] 0 0
s 1.083720667 _1_ RTR  --- 15 ack 60 [0 0 0 0] ------- [1:0 0:0 32 0] [5 0] 0 0
r 1.084010000 _0_ MAC  --- 0 ACK 38 [0 0 0 0] 
s 1.084200000 _0_ MAC  --- 0 RTS 44 [350e 1 0 0] 
r 1.084552333 _1_ MAC  --- 0 RTS 44 [350e 1 0 0] 
s 1.084562333 _1_ MAC  --- 0 CTS 38 [33d4 0 0 0] 
r 1.084866667 _0_ MAC  --- 0 CTS 38 [33d4 0 0 0] 
s 1.084876667 _0_ MAC  --- 12 tcp 1618 [13a 1 0 800] ------- [0:0 1:0 32 1] [6 0] 0 0
r 1.097821000 _1_ MAC  --- 12 tcp 1560 [13a 1 0 800] ------- [0:0 1:0 32 1] [6 0] 1 0
s 1.097831000 _1_ MAC  --- 0 ACK 38 [0 0 0 0] 
r 1.097846000 _1_ AGT  --- 12 tcp 1560 [13a 1 0 800] ------- [0:0 1:0 32 1] [6 0] 1 0
s 1.097846000 _1_ AGT  --- 16 ack 40 [0 0 0 0] ------- [1:0 0:0 32 0] [6 0] 0 0
r 1.097846000 _1_ RTR  --- 16 ack 40 [0 0 0 0] ------- [1:0 0:0 32 0] [6 0] 0 0
s 1.097846000 _1_ RTR  --- 16 ack 60 [0 0 0 0] ------- [1:0 0:0 32 0] [6 0] 0 0
r 1.098135333 _0_ MAC  --- 0 ACK 38 [0 0 0 0] 
s 1.098485000 _1_ MAC  --- 0 RTS 44 [62e 0 1 0] 
r 1.098837333 _0_ MAC  --- 0 RTS 44 [62e 0 1 0] 
s 1.098847333 _0_ MAC  --- 0 CTS 38 [4f4 1 0 0] 
r 1.099151667 _1_ MAC  --- 0 CTS 38 [4f4 1 0 0] 
s 1.099161667 _1_ MAC  --- 13 ack 118 [13a 0 1 800] ------- [1:0 0:0 32 0] [3 0] 0 0
r 1.100106000 _0_ MAC  --- 13 ack 60 [13a 0 1 800] ------- [1:0 0:0 32 0] [3 0] 1 0
s 1.100116000 _0_ MAC  --- 0 ACK 38 [0 1 0 0] 
r 1.100131000 _0_ AGT  --- 13 ack 60 [13a 0 1 800] ------- [1:0 0:0 32 0] [3 0] 1 0
s 1.100131000 _0_ AGT  --- 17 tcp 1540 [0 0 0 0] ------- [0:0 1:0 32 0] [7 0] 0 0
r 1.100131000 _0_ RTR  --- 17 tcp 1540 [0 0 0 0] ------- [0:0 1:0 32 0] [7 0] 0 0
s 1.100131000 _0_ RTR  --- 17 tcp 1560 [0 0 0 0] ------- [0:0 1:0 32 1] [7 0] 0 0
s 1.100131000 _0_ AGT  --- 18 tcp 1540 [0 0 0 0] ------- [0:0 1:0 32 0] [8 0] 0 0
r 1.100131000 _0_ RTR  --- 18 tcp 1540 [0 0 0 0] ------- [0:0 1:0 32 0] [8 0] 0 0
s 1.100131000 _0_ RTR  --- 18 tcp 1560 [0 0 0 0] ------- [0:0 1:0 32 1] [8 0] 0 0
r 1.100420333 _1_ MAC  --- 0 ACK 38 [0 1 0 0] 
s 1.100670333 _1_ MAC  --- 0 RTS 44 [62e 0 1 0] 
r 1.101022667 _0_ MAC  --- 0 RTS 44 [62e 0 1 0] 
s 1.101032667 _0_ MAC  --- 0 CTS 38 [4f4 1 0 0] 
r 1.101337000 _1_ MAC  --- 0 CTS 38 [4f4 1 0 0] 
s 1.101347000 _1_ MAC  --- 14 ack 118 [13a 0 1 800] ------- [1:0 0:0 32 0] [4 0] 0 0
r 1.102291333 _0_ MAC  --- 14 ack 60 [13a 0 1 800] ------- [1:0 0:0 32 0] [4 0] 1 0
s 1.102301333 _0_ MAC  --- 0 ACK 38 [0 1 0 0] 
r 1.102316333 _0_ AGT  --- 14 ack 60 [13a 0 1 800] ------- [1:0 0:0 32 0] [4 0] 1 0
s 1.102316333 _0_ AGT  --- 19 tcp 1540 [0 0 0 0] ------- [0:0 1:0 32 0] [9 0] 0 0
r 1.102316333 _0_ RTR  --- 19 tcp 1540 [0 0 0 0] ------- [0:0 1:0 32 0] [9 0] 0 0
s 1.102316333 _0_ RTR  --- 19 tcp 1560 [0 0 0 0] ------- [0:0 1:0 32 1] [9 0] 0 0
s 1.102316333 _0_ AGT  --- 20 tcp 1540 [0 0 0 0] ------- [0:0 1:0 32 0] [10 0] 0 0
r 1.102316333 _0_ RTR  --- 20 tcp 1540 [0 0 0 0] ------- [0:0 1:0 32 0] [10 0] 0 0
s 1.102316333 _0_ RTR  --- 20 tcp 1560 [0 0 0 0] ------- [0:0 1:0 32 1] [10 0] 0 0
r 1.102605667 _1_ MAC  --- 0 ACK 38 [0 1 0 0] 
s 1.102735333 _0_ MAC  --- 0 RTS 44 [350e 1 0 0] 
r 1.103087667 _1_ MAC  --- 0 RTS 44 [350e 1 0 0] 
s 1.103097667 _1_ MAC  --- 0 CTS 38 [33d4 0 0 0] 
r 1.103402000 _0_ MAC  --- 0 CTS 38 [33d4 0 0 0] 
s 1.103412000 _0_ MAC  --- 17 tcp 1618 [13a 1 0 800] ------- [0:0 1:0 32 1] [7 0] 0 0
r 1.116356333 _1_ MAC  --- 17 tcp 1560 [13a 1 0 800] ------- [0:0 1:0 32 1] [7 0] 1 0
s 1.116366333 _1_ MAC  --- 0 ACK 38 [0 0 0 0] 
r 1.116381333 _1_ AGT  --- 17 tcp 1560 [13a 1 0 800] ------- [0:0 1:0 32 1] [7 0] 1 0
s 1.116381333 _1_ AGT  --- 21 ack 40 [0 0 0 0] ------- [1:0 0:0 32 0] [7 0] 0 0
r 1.116381333 _1_ RTR  --- 21 ack 40 [0 0 0 0] ------- [1:0 0:0 32 0] [7 0] 0 0
s 1.116381333 _1_ RTR  --- 21 ack 60 [0 0 0 0] ------- [1:0 0:0 32 0] [7 0] 0 0
r 1.116670667 _0_ MAC  --- 0 ACK 38 [0 0 0 0] 
s 1.116760333 _1_ MAC  --- 0 RTS 44 [62e 0 1 0] 
r 1.117112667 _0_ MAC  --- 0 RTS 44 [62e 0 1 0] 
s 1.117122667 _0_ MAC  --- 0 CTS 38 [4f4 1 0 0] 
r 1.117427000 _1_ MAC  --- 0 CTS 38 [4f4 1 0 0] 
s 1.117437000 _1_ MAC  --- 15 ack 118 [13a 0 1 800] ------- [1:0 0:0 32 0] [5 0] 0 0
r 1.118381333 _0_ MAC  --- 15 ack 60 [13a 0 1 800] ------- [1:0 0:0 32 0] [5 0] 1 0
s 1.118391333 _0_ MAC  --- 0 ACK 38 [0 1 0 0] 
r 1.118406333 _0_ AGT  --- 15 ack 60 [13a 0 1 800] ------- [1:0 0:0 32 0] [5 0] 1 0
s 1.118406333 _0_ AGT  --- 22 tcp 1540 [0 0 0 0] ------- [0:0 1:0 32 0] [11 0] 0 0
r 1.118406333 _0_ RTR  --- 22 tcp 1540 [0 0 0 0] ------- [0:0 1:0 32 0] [11 0] 0 0
s 1.118406333 _0_ RTR  --- 22 tcp 1560 [0 0 0 0] ------- [0:0 1:0 32 1] [11 0] 0 0
s 1.118406333 _0_ AGT  --- 23 tcp 1540 [0 0 0 0] ------- [0:0 1:0 32 0] [12 0] 0 0
r 1.118406333 _0_ RTR  --- 23 tcp 1540 [0 0 0 0] ------- [0:0 1:0 32 0] [12 0] 0 0
s 1.118406333 _0_ RTR  --- 23 tcp 1560 [0 0 0 0] ------- [0:0 1:0 32 1] [12 0] 0 0
r 1.118695667 _1_ MAC  --- 0 ACK 38 [0 1 0 0] 
s 1.118965667 _1_ MAC  --- 0 RTS 44 [62e 0 1 0] 
r 1.119318000 _0_ MAC  --- 0 RTS 44 [62e 0 1 0] 
s 1.119328000 _0_ MAC  --- 0 CTS 38 [4f4 1 0 0] 
r 1.119632333 _1_ MAC  --- 0 CTS 38 [4f4 1 0 0] 
s 1.119642333 _1_ MAC  --- 16 ack 118 [13a 0 1 800] ------- [1:0 0:0 32 0] [6 0] 0 0
r 1.120586667 _0_ MAC  --- 16 ack 60 [13a 0 1 800] ------- [1:0 0:0 32 0] [6 0] 1 0
s 1.120596667 _0_ MAC  --- 0 ACK 38 [0 1 0 0] 
r 1.120611667 _0_ AGT  --- 16 ack 60 [13a 0 1 800] ------- [1:0 0:0 32 0] [6 0] 1 0
s 1.120611667 _0_ AGT  --- 24 tcp 1540 [0 0 0 0] ------- [0:0 1:0 32 0] [13 0] 0 0
r 1.120611667 _0_ RTR  --- 24 tcp 1540 [0 0 0 0] ------- [0:0 1:0 32 0] [13 0] 0 0
s 1.120611667 _0_ RTR  --- 24 tcp 1560 [0 0 0 0] ------- [0:0 1:0 32 1] [13 0] 0 0
s 1.120611667 _0_ AGT  --- 25 tcp 1540 [0 0 0 0] ------- [0:0 1:0 32 0] [14 0] 0 0
r 1.120611667 _0_ RTR  --- 25 tcp 1540 [0 0 0 0] ------- [0:0 1:0 32 0] [14 0] 0 0
s 1.120611667 _0_ RTR  --- 25 tcp 1560 [0 0 0 0] ------- [0:0 1:0 32 1] [14 0] 0 0
r 1.120901000 _1_ MAC  --- 0 ACK 38 [0 1 0 0] 
s 1.121151000 _1_ MAC  --- 0 RTS 44 [62e 0 1 0] 
r 1.121503333 _0_ MAC  --- 0 RTS 44 [62e 0 1 0] 
s 1.121513333 _0_ MAC  --- 0 CTS 38 [4f4 1 0 0] 
r 1.121817667 _1_ MAC  --- 0 CTS 38 [4f4 1 0 0] 
s 1.121827667 _1_ MAC  --- 21 ack 118 [13a 0 1 800] ------- [1:0 0:0 32 0] [7 0] 0 0
r 1.122772000 _0_ MAC  --- 21 ack 60 [13a 0 1 800] ------- [1:0 0:0 32 0] [7 0] 1 0
s 1.122782000 _0_ MAC  --- 0 ACK 38 [0 1 0 0] 
r 1.122797000 _0_ AGT  --- 21 ack 60 [13a 0 1 800] ------- [1:0 0:0 32 0] [7 0] 1 0
s 1.122797000 _0_ AGT  --- 26 tcp 1540 [0 0 0 0] ------- [0:0 1:0 32 0] [15 0] 0 0
r 1.122797000 _0_ RTR  --- 26 tcp 1540 [0 0 0 0] ------- [0:0 1:0 32 0] [15 0] 0 0
s 1.122797000 _0_ RTR  --- 26 tcp 1560 [0 0 0 0] ------- [0:0 1:0 32 1] [15 0] 0 0
s 1.122797000 _0_ AGT  --- 27 tcp 1540 [0 0 0 0] ------- [0:0 1:0 32 0] [16 0] 0 0
r 1.122797000 _0_ RTR  --- 27 tcp 1540 [0 0 0 0] ------- [0:0 1:0 32 0] [16 0] 0 0
s 1.122797000 _0_ RTR  --- 27 tcp 1560 [0 0 0 0] ------- [0:0 1:0 32 1] [16 0] 0 0
r 1.123086333 _1_ MAC  --- 0 ACK 38 [0 1 0 0] 
s 1.123216000 _0_ MAC  --- 0 RTS 44 [350e 1 0 0] 
r 1.123568333 _1_ MAC  --- 0 RTS 44 [350e 1 0 0] 
s 1.123578333 _1_ MAC  --- 0 CTS 38 [33d4 0 0 0] 
r 1.123882667 _0_ MAC  --- 0 CTS 38 [33d4 0 0 0] 
s 1.123892667 _0_ MAC  --- 18 tcp 1618 [13a 1 0 800] ------- [0:0 1:0 32 1] [8 0] 0 0
r 1.136837000 _1_ MAC  --- 18 tcp 1560 [13a 1 0 800] ------- [0:0 1:0 32 1] [8 0] 1 0
s 1.136847000 _1_ MAC  --- 0 ACK 38 [0 0 0 0] 
r 1.136862000 _1_ AGT  --- 18 tcp 1560 [13a 1 0 800] ------- [0:0 1:0 32 1] [8 0] 1 0
s 1.136862000 _1_ AGT  --- 28 ack 40 [0 0 0 0] ------- [1:0 0:0 32 0] [8 0] 0 0
r 1.136862000 _1_ RTR  --- 28 ack 40 [0 0 0 0] ------- [1:0 0:0 32 0] [8 0] 0 0
s 1.136862000 _1_ RTR  --- 28 ack 60 [0 0 0 0] ------- [1:0 0:0 32 0] [8 0] 0 0
r 1.137151333 _0_ MAC  --- 0 ACK 38 [0 0 0 0] 
s 1.137261333 _0_ MAC  --- 0 RTS 44 [350e 1 0 0] 
r 1.137613667 _1_ MAC  --- 0 RTS 44 [350e 1 0 0] 
s 1.137623667 _1_ MAC  --- 0 CTS 38 [33d4 0 0 0] 
r 1.137928000 _0_ MAC  --- 0 CTS 38 [33d4 0 0 0] 
s 1.137938000 _0_ MAC  --- 19 tcp 1618 [13a 1 0 800] ------- [0:0 1:0 32 1] [9 0] 0 0
r 1.150882333 _1_ MAC  --- 19 tcp 1560 [13a 1 0 800] ------- [0:0 1:0 32 1] [9 0] 1 0
s 1.150892333 _1_ MAC  --- 0 ACK 38 [0 0 0 0] 
r 1.150907333 _1_ AGT  --- 19 tcp 1560 [13a 1 0 800] ------- [0:0 1:0 32 1] [9 0] 1 0
s 1.150907333 _1_ AGT  --- 29 ack 40 [0 0 0 0] ------- [1:0 0:0 32 0] [9 0] 0 0
r 1.150907333 _1_ RTR  --- 29 ack 40 [0 0 0 0] ------- [1:0 0:0 32 0] [9 0] 0 0
s 1.150907333 _1_ RTR  --- 29 ack 60 [0 0 0 0] ------- [1:0 0:0 32 0] [9 0] 0 0
r 1.151196667 _0_ MAC  --- 0 ACK 38 [0 0 0 0] 
s 1.151366667 _0_ MAC  --- 0 RTS 44 [350e 1 0 0] 
r 1.151719000 _1_ MAC  --- 0 RTS 44 [350e 1 0 0] 
s 1.151729000 _1_ MAC  --- 0 CTS 38 [33d4 0 0 0] 
r 1.152033333 _0_ MAC  --- 0 CTS 38 [33d4 0 0 0] 
s 1.152043333 _0_ MAC  --- 20 tcp 1618 [13a 1 0 800] ------- [0:0 1:0 32 1] [10 0] 0 0
r 1.164987667 _1_ MAC  --- 20 tcp 1560 [13a 1 0 800] ------- [0:0 1:0 32 1] [10 0] 1 0
s 1.164997667 _1_ MAC  --- 0 ACK 38 [0 0 0 0] 
r 1.165012667 _1_ AGT  --- 20 tcp 1560 [13a 1 0 800] ------- [0:0 1:0 32 1] [10 0] 1 0
s 1.165012667 _1_ AGT  --- 30 ack 40 [0 0 0 0] ------- [1:0 0:0 32 0] [10 0] 0 0
r 1.165012667 _1_ RTR  --- 30 ack 40 [0 0 0 0] ------- [1:0 0:0 32 0] [10 0] 0 0
s 1.165012667 _1_ RTR  --- 30 ack 60 [0 0 0 0] ------- [1:0 0:0 32 0] [10 0] 0 0
r 1.165302000 _0_ MAC  --- 0 ACK 38 [0 0 0 0] 
s 1.165691667 _1_ MAC  --- 0 RTS 44 [62e 0 1 0] 
s 1.165692000 _0_ MAC  --- 0 RTS 44 [350e 1 0 0] 
s 1.166498000 _0_ MAC  --- 0 RTS 44 [350e 1 0 0] 
r 1.166850333 _1_ MAC  --- 0 RTS 44 [350e 1 0 0] 
s 1.166860333 _1_ MAC  --- 0 CTS 38 [33d4 0 0 0] 
r 1.167164667 _0_ MAC  --- 0 CTS 38 [33d4 0 0 0] 
s 1.167174667 _0_ MAC  --- 22 tcp 1618 [13a 1 0 800] ------- [0:0 1:0 32 1] [11 0] 0 0
r 1.180119000 _1_ MAC  --- 22 tcp 1560 [13a 1 0 800] ------- [0:0 1:0 32 1] [11 0] 1 0
s 1.180129000 _1_ MAC  --- 0 ACK 38 [0 0 0 0] 
r 1.180144000 _1_ AGT  --- 22 tcp 1560 [13a 1 0 800] ------- [0:0 1:0 32 1] [11 0] 1 0
s 1.180144000 _1_ AGT  --- 31 ack 40 [0 0 0 0] ------- [1:0 0:0 32 0] [11 0] 0 0
r 1.180144000 _1_ RTR  --- 31 ack 40 [0 0 0 0] ------- [1:0 0:0 32 0] [11 0] 0 0
s 1.180144000 _1_ RTR  --- 31 ack 60 [0 0 0 0] ------- [1:0 0:0 32 0] [11 0] 0 0
r 1.180433333 _0_ MAC  --- 0 ACK 38 [0 0 0 0] 
s 1.180663333 _0_ MAC  --- 0 RTS 44 [350e 1 0 0] 
r 1.181015667 _1_ MAC  --- 0 RTS 44 [350e 1 0 0] 
s 1.181025667 _1_ MAC  --- 0 CTS 38 [33d4 0 0 0] 
r 1.181330000 _0_ MAC  --- 0 CTS 38 [33d4 0 0 0] 
s 1.181340000 _0_ MAC  --- 23 tcp 1618 [13a 1 0 800] ------- [0:0 1:0 32 1] [12 0] 0 0
r 1.194284333 _1_ MAC  --- 23 tcp 1560 [13a 1 0 800] ------- [0:0 1:0 32 1] [12 0] 1 0
s 1.194294333 _1_ MAC  --- 0 ACK 38 [0 0 0 0] 
r 1.194309333 _1_ AGT  --- 23 tcp 1560 [13a 1 0 800] ------- [0:0 1:0 32 1] [12 0] 1 0
s 1.194309333 _1_ AGT  --- 32 ack 40 [0 0 0 0] ------- [1:0 0:0 32 0] [12 0] 0 0
r 1.194309333 _1_ RTR  --- 32 ack 40 [0 0 0 0] ------- [1:0 0:0 32 0] [12 0] 0 0
s 1.194309333 _1_ RTR  --- 32 ack 60 [0 0 0 0] ------- [1:0 0:0 32 0] [12 0] 0 0
r 1.194598667 _0_ MAC  --- 0 ACK 38 [0 0 0 0] 
s 1.194928667 _0_ MAC  --- 0 RTS 44 [350e 1 0 0] 
r 1.195281000 _1_ MAC  --- 0 RTS 44 [350e 1 0 0] 
s 1.195291000 _1_ MAC  --- 0 CTS 38 [33d4 0 0 0] 
r 1.195595333 _0_ MAC  --- 0 CTS 38 [33d4 0 0 0] 
s 1.195605333 _0_ MAC  --- 24 tcp 1618 [13a 1 0 800] ------- [0:0 1:0 32 1] [13 0] 0 0
r 1.208549667 _1_ MAC  --- 24 tcp 1560 [13a 1 0 800] ------- [0:0 1:0 32 1] [13 0] 1 0
s 1.208559667 _1_ MAC  --- 0 ACK 38 [0 0 0 0] 
r 1.208574667 _1_ AGT  --- 24 tcp 1560 [13a 1 0 800] ------- [0:0 1:0 32 1] [13 0] 1 0
s 1.208574667 _1_ AGT  --- 33 ack 40 [0 0 0 0] ------- [1:0 0:0 32 0] [13 0] 0 0
r 1.208574667 _1_ RTR  --- 33 ack 40 [0 0 0 0] ------- [1:0 0:0 32 0] [13 0] 0 0
s 1.208574667 _1_ RTR  --- 33 ack 60 [0 0 0 0] ------- [1:0 0:0 32 0] [13 0] 0 0
r 1.208864000 _0_ MAC  --- 0 ACK 38 [0 0 0 0] 
s 1.209113667 _1_ MAC  --- 0 RTS 44 [62e 0 1 0] 
r 1.209466000 _0_ MAC  --- 0 RTS 44 [62e 0 1 0] 
s 1.209476000 _0_ MAC  --- 0 CTS 38 [4f4 1 0 0] 
r 1.209780333 _1_ MAC  --- 0 CTS 38 [4f4 1 0 0] 
s 1.209790333 _1_ MAC  --- 28 ack 118 [13a 0 1 800] ------- [1:0 0:0 32 0] [8 0] 0 0
r 1.210734667 _0_ MAC  --- 28 ack 60 [13a 0 1 800] ------- [1:0 0:0 32 0] [8 0] 1 0
s 1.210744667 _0_ MAC  --- 0 ACK 38 [0 1 0 0] 
r 1.210759667 _0_ AGT  --- 28 ack 60 [13a 0 1 800] ------- [1:0 0:0 32 0] [8 0] 1 0
s 1.210759667 _0_ AGT  --- 34 tcp 1540 [0 0 0 0] ------- [0:0 1:0 32 0] [17 0] 0 0
r 1.210759667 _0_ RTR  --- 34 tcp 1540 [0 0 0 0] ------- [0:0 1:0 32 0] [17 0] 0 0
s 1.210759667 _0_ RTR  --- 34 tcp 1560 [0 0 0 0] ------- [0:0 1:0 32 1] [17 0] 0 0
s 1.210759667 _0_ AGT  --- 35 tcp 1540 [0 0 0 0] ------- [0:0 1:0 32 0] [18 0] 0 0
r 1.210759667 _0_ RTR  --- 35 tcp 1540 [0 0 0 0] ------- [0:0 1:0 32 0] [18 0] 0 0
s 1.210759667 _0_ RTR  --- 35 tcp 1560 [0 0 0 0] ------- [0:0 1:0 32 1] [18 0] 0 0
r 1.211049000 _1_ MAC  --- 0 ACK 38 [0 1 0 0] 
s 1.211099000 _1_ MAC  --- 0 RTS 44 [62e 0 1 0] 
r 1.211451333 _0_ MAC  --- 0 RTS 44 [62e 0 1 0] 
s 1.211461333 _0_ MAC  --- 0 CTS 38 [4f4 1 0 0] 
r 1.211765667 _1_ MAC  --- 0 CTS 38 [4f4 1 0 0] 
s 1.211775667 _1_ MAC  --- 29 ack 118 [13a 0 1 800] ------- [1:0 0:0 32 0] [9 0] 0 0
r 1.212720000 _0_ MAC  --- 29 ack 60 [13a 0 1 800] ------- [1:0 0:0 32 0] [9 0] 1 0
s 1.212730000 _0_ MAC  --- 0 ACK 38 [0 1 0 0] 
r 1.212745000 _0_ AGT  --- 29 ack 60 [13a 0 1 800] ------- [1:0 0:0 32 0] [9 0] 1 0
s 1.212745000 _0_ AGT  --- 36 tcp 1540 [0 0 0 0] ------- [0:0 1:0 32 0] [19 0] 0 0
r 1.212745000 _0_ RTR  --- 36 tcp 1540 [0 0 0 0] ------- [0:0 1:0 32 0] [19 0] 0 0
s 1.212745000 _0_ RTR  --- 36 tcp 1560 [0 0 0 0] ------- [0:0 1:0 32 1] [19 0] 0 0
s 1.212745000 _0_ AGT  --- 37 tcp 1540 [0 0 0 0] ------- [0:0 1:0 32 0] [20 0] 0 0
r 1.212745000 _0_ RTR  --- 37 tcp 1540 [0 0 0 0] ------- [0:0 1:0 32 0] [20 0] 0 0
s 1.212745000 _0_ RTR  --- 37 tcp 1560 [0 0 0 0] ------- [0:0 1:0 32 1] [20 0] 0 0
r 1.213034333 _1_ MAC  --- 0 ACK 38 [0 1 0 0] 
s 1.213304333 _1_ MAC  --- 0 RTS 44 [62e 0 1 0] 
r 1.213656667 _0_ MAC  --- 0 RTS 44 [62e 0 1 0] 
s 1.213666667 _0_ MAC  --- 0 CTS 38 [4f4 1 0 0] 
r 1.213971000 _1_ MAC  --- 0 CTS 38 [4f4 1 0 0] 
s 1.213981000 _1_ MAC  --- 30 ack 118 [13a 0 1 800] ------- [1:0 0:0 32 0] [10 0] 0 0
r 1.214925333 _0_ MAC  --- 30 ack 60 [13a 0 1 800] ------- [1:0 0:0 32 0] [10 0] 1 0
s 1.214935333 _0_ MAC  --- 0 ACK 38 [0 1 0 0] 
r 1.214950333 _0_ AGT  --- 30 ack 60 [13a 0 1 800] ------- [1:0 0:0 32 0] [10 0] 1 0
s 1.214950333 _0_ AGT  --- 38 tcp 1540 [0 0 0 0] ------- [0:0 1:0 32 0] [21 0] 0 0
r 1.214950333 _0_ RTR  --- 38 tcp 1540 [0 0 0 0] ------- [0:0 1:0 32 0] [21 0] 0 0
s 1.214950333 _0_ RTR  --- 38 tcp 1560 [0 0 0 0] ------- [0:0 1:0 32 1] [21 0] 0 0
s 1.214950333 _0_ AGT  --- 39 tcp 1540 [0 0 0 0] ------- [0:0 1:0 32 0] [22 0] 0 0
r 1.214950333 _0_ RTR  --- 39 tcp 1540 [0 0 0 0] ------- [0:0 1:0 32 0] [22 0] 0 0
s 1.214950333 _0_ RTR  --- 39 tcp 1560 [0 0 0 0] ------- [0:0 1:0 32 1] [22 0] 0 0
r 1.215239667 _1_ MAC  --- 0 ACK 38 [0 1 0 0] 
s 1.215369333 _0_ MAC  --- 0 RTS 44 [350e 1 0 0] 
r 1.215721667 _1_ MAC  --- 0 RTS 44 [350e 1 0 0] 
s 1.215731667 _1_ MAC  --- 0 CTS 38 [33d4 0 0 0] 
r 1.216036000 _0_ MAC  --- 0 CTS 38 [33d4 0 0 0] 
s 1.216046000 _0_ MAC  --- 25 tcp 1618 [13a 1 0 800] ------- [0:0 1:0 32 1] [14 0] 0 0
r 1.228990333 _1_ MAC  --- 25 tcp 1560 [13a 1 0 800] ------- [0:0 1:0 32 1] [14 0] 1 0
s 1.229000333 _1_ MAC  --- 0 ACK 38 [0 0 0 0] 
r 1.229015333 _1_ AGT  --- 25 tcp 1560 [13a 1 0 800] ------- [0:0 1:0 32 1] [14 0] 1 0
s 1.229015333 _1_ AGT  --- 40 ack 40 [0 0 0 0] ------- [1:0 0:0 32 0] [14 0] 0 0
r 1.229015333 _1_ RTR  --- 40 ack 40 [0 0 0 0] ------- [1:0 0:0 32 0] [14 0] 0 0
s 1.229015333 _1_ RTR  --- 40 ack 60 [0 0 0 0] ------- [1:0 0:0 32 0] [14 0] 0 0
r 1.229304667 _0_ MAC  --- 0 ACK 38 [0 0 0 0] 
s 1.229514667 _0_ MAC  --- 0 RTS 44 [350e 1 0 0] 
r 1.229867000 _1_ MAC  --- 0 RTS 44 [350e 1 0 0] 
s 1.229877000 _1_ MAC  --- 0 CTS 38 [33d4 0 0 0] 
r 1.230181333 _0_ MAC  --- 0 CTS 38 [33d4 0 0 0] 
s 1.230191333 _0_ MAC  --- 26 tcp 1618 [13a 1 0 800] ------- [0:0 1:0 32 1] [15 0] 0 0
r 1.243135667 _1_ MAC  --- 26 tcp 1560 [13a 1 0 800] ------- [0:0 1:0 32 1] [15 0] 1 0
s 1.243145667 _1_ MAC  --- 0 ACK 38 [0 0 0 0] 
r 1.243160667 _1_ AGT  --- 26 tcp 1560 [13a 1 0 800] ------- [0:0 1:0 32 1] [15 0] 1 0
s 1.243160667 _1_ AGT  --- 41 ack 40 [0 0 0 0] ------- [1:0 0:0 32 0] [15 0] 0 0
r 1.243160667 _1_ RTR  --- 41 ack 40 [0 0 0 0] ------- [1:0 0:0 32 0] [15 0] 0 0
s 1.243160667 _1_ RTR  --- 41 ack 60 [0 0 0 0] ------- [1:0 0:0 32 0] [15 0] 0 0
r 1.243450000 _0_ MAC  --- 0 ACK 38 [0 0 0 0] 
s 1.243599667 _1_ MAC  --- 0 RTS 44 [62e 0 1 0] 
r 1.243952000 _0_ MAC  --- 0 RTS 44 [62e 0 1 0] 
s 1.243962000 _0_ MAC  --- 0 CTS 38 [4f4 1 0 0] 
r 1.244266333 _1_ MAC  --- 0 CTS 38 [4f4 1 0 0] 
s 1.244276333 _1_ MAC  --- 31 ack 118 [13a 0 1 800] ------- [1:0 0:0 32 0] [11 0] 0 0
r 1.245220667 _0_ MAC  --- 31 ack 60 [13a 0 1 800] ------- [1:0 0:0 32 0] [11 0] 1 0
s 1.245230667 _0_ MAC  --- 0 ACK 38 [0 1 0 0] 
r 1.245245667 _0_ AGT  --- 31 ack 60 [13a 0 1 800] ------- [1:0 0:0 32 0] [11 0] 1 0
s 1.245245667 _0_ AGT  --- 42 tcp 1540 [0 0 0 0] ------- [0:0 1:0 32 0] [23 0] 0 0
r 1.245245667 _0_ RTR  --- 42 tcp 1540 [0 0 0 0] ------- [0:0 1:0 32 0] [23 0] 0 0
s 1.245245667 _0_ RTR  --- 42 tcp 1560 [0 0 0 0] ------- [0:0 1:0 32 1] [23 0] 0 0
s 1.245245667 _0_ AGT  --- 43 tcp 1540 [0 0 0 0] ------- [0:0 1:0 32 0] [24 0] 0 0
r 1.245245667 _0_ RTR  --- 43 tcp 1540 [0 0 0 0] ------- [0:0 1:0 32 0] [24 0] 0 0
s 1.245245667 _0_ RTR  --- 43 tcp 1560 [0 0 0 0] ------- [0:0 1:0 32 1] [24 0] 0 0
r 1.245535000 _1_ MAC  --- 0 ACK 38 [0 1 0 0] 
s 1.245665000 _1_ MAC  --- 0 RTS 44 [62e 0 1 0] 
r 1.246017333 _0_ MAC  --- 0 RTS 44 [62e 0 1 0] 
s 1.246027333 _0_ MAC  --- 0 CTS 38 [4f4 1 0 0] 
r 1.246331667 _1_ MAC  --- 0 CTS 38 [4f4 1 0 0] 
s 1.246341667 _1_ MAC  --- 32 ack 118 [13a 0 1 800] ------- [1:0 0:0 32 0] [12 0] 0 0
r 1.247286000 _0_ MAC  --- 32 ack 60 [13a 0 1 800] ------- [1:0 0:0 32 0] [12 0] 1 0
s 1.247296000 _0_ MAC  --- 0 ACK 38 [0 1 0 0] 
r 1.247311000 _0_ AGT  --- 32 ack 60 [13a 0 1 800] ------- [1:0 0:0 32 0] [12 0] 1 0
s 1.247311000 _0_ AGT  --- 44 tcp 1540 [0 0 0 0] ------- [0:0 1:0 32 0] [25 0] 0 0
r 1.247311000 _0_ RTR  --- 44 tcp 1540 [0 0 0 0] ------- [0:0 1:0 32 0] [25 0] 0 0
s 1.247311000 _0_ RTR  --- 44 tcp 1560 [0 0 0 0] ------- [0:0 1:0 32 1] [25 0] 0 0
s 1.247311000 _0_ AGT  --- 45 tcp 1540 [0 0 0 0] ------- [0:0 1:0 32 0] [26 0] 0 0
r 1.247311000 _0_ RTR  --- 45 tcp 1540 [0 0 0 0] ------- [0:0 1:0 32 0] [26 0] 0 0
s 1.247311000 _0_ RTR  --- 45 tcp 1560 [0 0 0 0] ------- [0:0 1:0 32 1] [26 0] 0 0
r 1.247600333 _1_ MAC  --- 0 ACK 38 [0 1 0 0] 
s 1.247710000 _0_ MAC  --- 0 RTS 44 [350e 1 0 0] 
r 1.248062333 _1_ MAC  --- 0 RTS 44 [350e 1 0 0] 
s 1.248072333 _1_ MAC  --- 0 CTS 38 [33d4 0 0 0] 
r 1.248376667 _0_ MAC  --- 0 CTS 38 [33d4 0 0 0] 
s 1.248386667 _0_ MAC  --- 27 tcp 1618 [13a 1 0 800] ------- [0:0 1:0 32 1] [16 0] 0 0
r 1.261331000 _1_ MAC  --- 27 tcp 1560 [13a 1 0 800] ------- [0:0 1:0 32 1] [16 0] 1 0
s 1.261341000 _1_ MAC  --- 0 ACK 38 [0 0 0 0] 
r 1.261356000 _1_ AGT  --- 27 tcp 1560 [13a 1 0 800] ------- [0:0 1:0 32 1] [16 0] 1 0