n -t * -s 0  -x 0 -y 100 -Z 0 -z 20  -v circle -c green
n -t * -s 1  -x 100 -y 100 -Z 0 -z 20  -v circle -c green
n -t * -s 2  -x 0 -y 0 -Z 0 -z 20  -v circle -c green
n -t * -s 3  -x 100 -y 0 -Z 0 -z 20  -v circle -c green
n -t * -s 4  -x 50 -y 50 -Z 0 -z 20  -v circle -c green
V -t * -v 1.0a5 -a 0
W -t * -x 225 -y 100
A -t * -n 1 -p 0 -o 0x7fffffff -c 30 -a 1
A -t * -h 1 -m 1073741823 -s 0
+ -t 0.475592155 -s 4 -d -1 -p message -e 32 -c 2 -a 0 -i 0 -k RTR 
- -t 0.475592155 -s 4 -d -1 -p message -e 32 -c 2 -a 0 -i 0 -k RTR
h -t 0.475592155 -s 4 -d -1 -p message -e 32 -c 2 -a 0 -i 0 -k RTR
+ -t 0.475907155 -s 4 -d -1 -p message -e 90 -c 2 -a 0 -i 0 -k MAC 
- -t 0.475907155 -s 4 -d -1 -p message -e 90 -c 2 -a 0 -i 0 -k MAC
h -t 0.475907155 -s 4 -d -1 -p message -e 90 -c 2 -a 0 -i 0 -k MAC
r -t 0.476627391 -s 2 -d -1 -p message -e 32 -c 2 -a 0 -i 0 -k MAC
r -t 0.476627391 -s 0 -d -1 -p message -e 32 -c 2 -a 0 -i 0 -k MAC
r -t 0.476627391 -s 1 -d -1 -p message -e 32 -c 2 -a 0 -i 0 -k MAC
r -t 0.476627391 -s 3 -d -1 -p message -e 32 -c 2 -a 0 -i 0 -k MAC
r -t 0.476652391 -s 2 -d -1 -p message -e 32 -c 2 -a 0 -i 0 -k RTR
r -t 0.476652391 -s 0 -d -1 -p message -e 32 -c 2 -a 0 -i 0 -k RTR
r -t 0.476652391 -s 1 -d -1 -p message -e 32 -c 2 -a 0 -i 0 -k RTR
r -t 0.476652391 -s 3 -d -1 -p message -e 32 -c 2 -a 0 -i 0 -k RTR
+ -t 0.626351489 -s 2 -d -1 -p message -e 32 -c 2 -a 0 -i 1 -k RTR 
- -t 0.626351489 -s 2 -d -1 -p message -e 32 -c 2 -a 0 -i 1 -k RTR
h -t 0.626351489 -s 2 -d -1 -p message -e 32 -c 2 -a 0 -i 1 -k RTR
+ -t 0.626786489 -s 2 -d -1 -p message -e 90 -c 2 -a 0 -i 1 -k MAC 
- -t 0.626786489 -s 2 -d -1 -p message -e 90 -c 2 -a 0 -i 1 -k MAC
h -t 0.626786489 -s 2 -d -1 -p message -e 90 -c 2 -a 0 -i 1 -k MAC
r -t 0.627506725 -s 4 -d -1 -p message -e 32 -c 2 -a 0 -i 1 -k MAC
r -t 0.627506822 -s 0 -d -1 -p message -e 32 -c 2 -a 0 -i 1 -k MAC
r -t 0.627506822 -s 3 -d -1 -p message -e 32 -c 2 -a 0 -i 1 -k MAC
r -t 0.627506960 -s 1 -d -1 -p message -e 32 -c 2 -a 0 -i 1 -k MAC
r -t 0.627531725 -s 4 -d -1 -p message -e 32 -c 2 -a 0 -i 1 -k RTR
r -t 0.627531822 -s 0 -d -1 -p message -e 32 -c 2 -a 0 -i 1 -k RTR
r -t 0.627531822 -s 3 -d -1 -p message -e 32 -c 2 -a 0 -i 1 -k RTR
r -t 0.627531960 -s 1 -d -1 -p message -e 32 -c 2 -a 0 -i 1 -k RTR
+ -t 0.886583331 -s 0 -d -1 -p message -e 32 -c 2 -a 0 -i 2 -k RTR 
- -t 0.886583331 -s 0 -d -1 -p message -e 32 -c 2 -a 0 -i 2 -k RTR
h -t 0.886583331 -s 0 -d -1 -p message -e 32 -c 2 -a 0 -i 2 -k RTR
+ -t 0.886998331 -s 0 -d -1 -p message -e 90 -c 2 -a 0 -i 2 -k MAC 
- -t 0.886998331 -s 0 -d -1 -p message -e 90 -c 2 -a 0 -i 2 -k MAC
h -t 0.886998331 -s 0 -d -1 -p message -e 90 -c 2 -a 0 -i 2 -k MAC
r -t 0.887718567 -s 4 -d -1 -p message -e 32 -c 2 -a 0 -i 2 -k MAC
r -t 0.887718665 -s 2 -d -1 -p message -e 32 -c 2 -a 0 -i 2 -k MAC
r -t 0.887718665 -s 1 -d -1 -p message -e 32 -c 2 -a 0 -i 2 -k MAC
r -t 0.887718803 -s 3 -d -1 -p message -e 32 -c 2 -a 0 -i 2 -k MAC
r -t 0.887743567 -s 4 -d -1 -p message -e 32 -c 2 -a 0 -i 2 -k RTR
r -t 0.887743665 -s 2 -d -1 -p message -e 32 -c 2 -a 0 -i 2 -k RTR
r -t 0.887743665 -s 1 -d -1 -p message -e 32 -c 2 -a 0 -i 2 -k RTR
r -t 0.887743803 -s 3 -d -1 -p message -e 32 -c 2 -a 0 -i 2 -k RTR
+ -t 1.000000000 -s 0 -d -1 -p tcp -e 40 -c 2 -a 0 -i 3 -k AGT 
- -t 1.000000000 -s 0 -d -1 -p tcp -e 40 -c 2 -a 0 -i 3 -k AGT
h -t 1.000000000 -s 0 -d -1 -p tcp -e 40 -c 2 -a 0 -i 3 -k AGT
+ -t 1.601798317 -s 1 -d -1 -p message -e 32 -c 2 -a 0 -i 4 -k RTR 
- -t 1.601798317 -s 1 -d -1 -p message -e 32 -c 2 -a 0 -i 4 -k RTR
h -t 1.601798317 -s 1 -d -1 -p message -e 32 -c 2 -a 0 -i 4 -k RTR
+ -t 1.601893317 -s 1 -d -1 -p message -e 90 -c 2 -a 0 -i 4 -k MAC 
- -t 1.601893317 -s 1 -d -1 -p message -e 90 -c 2 -a 0 -i 4 -k MAC
h -t 1.601893317 -s 1 -d -1 -p message -e 90 -c 2 -a 0 -i 4 -k MAC
r -t 1.602613553 -s 4 -d -1 -p message -e 32 -c 2 -a 0 -i 4 -k MAC
r -t 1.602613651 -s 0 -d -1 -p message -e 32 -c 2 -a 0 -i 4 -k MAC
r -t 1.602613651 -s 3 -d -1 -p message -e 32 -c 2 -a 0 -i 4 -k MAC
r -t 1.602613789 -s 2 -d -1 -p message -e 32 -c 2 -a 0 -i 4 -k MAC
r -t 1.602638553 -s 4 -d -1 -p message -e 32 -c 2 -a 0 -i 4 -k RTR
r -t 1.602638651 -s 0 -d -1 -p message -e 32 -c 2 -a 0 -i 4 -k RTR
+ -t 1.602638651 -s 0 -d 1 -p tcp -e 80 -c 2 -a 0 -i 3 -k RTR 
- -t 1.602638651 -s 0 -d 1 -p tcp -e 80 -c 2 -a 0 -i 3 -k RTR
h -t 1.602638651 -s 0 -d 1 -p tcp -e 80 -c 2 -a 0 -i 3 -k RTR
r -t 1.602638651 -s 3 -d -1 -p message -e 32 -c 2 -a 0 -i 4 -k RTR
r -t 1.602638789 -s 2 -d -1 -p message -e 32 -c 2 -a 0 -i 4 -k RTR
+ -t 1.603133651 -s 0 -d -1 -p ARP -e 86 -c 2 -a 0 -i 0 -k MAC 
- -t 1.603133651 -s 0 -d -1 -p ARP -e 86 -c 2 -a 0 -i 0 -k MAC
h -t 1.603133651 -s 0 -d -1 -p ARP -e 86 -c 2 -a 0 -i 0 -k MAC
r -t 1.603821886 -s 4 -d -1 -p ARP -e 28 -c 2 -a 0 -i 0 -k MAC
r -t 1.603821984 -s 2 -d -1 -p ARP -e 28 -c 2 -a 0 -i 0 -k MAC
r -t 1.603821984 -s 1 -d -1 -p ARP -e 28 -c 2 -a 0 -i 0 -k MAC
r -t 1.603822122 -s 3 -d -1 -p ARP -e 28 -c 2 -a 0 -i 0 -k MAC
+ -t 1.604456984 -s 1 -d -1 -p RTS -e 44 -c 2 -a 0 -i 0 -k MAC 
- -t 1.604456984 -s 1 -d -1 -p RTS -e 44 -c 2 -a 0 -i 0 -k MAC
h -t 1.604456984 -s 1 -d -1 -p RTS -e 44 -c 2 -a 0 -i 0 -k MAC
r -t 1.604809317 -s 0 -d -1 -p RTS -e 44 -c 2 -a 0 -i 0 -k MAC
+ -t 1.604819317 -s 0 -d -1 -p CTS -e 38 -c 2 -a 0 -i 0 -k MAC 
- -t 1.604819317 -s 0 -d -1 -p CTS -e 38 -c 2 -a 0 -i 0 -k MAC
h -t 1.604819317 -s 0 -d -1 -p CTS -e 38 -c 2 -a 0 -i 0 -k MAC
r -t 1.605123651 -s 1 -d -1 -p CTS -e 38 -c 2 -a 0 -i 0 -k MAC
+ -t 1.605133651 -s 1 -d -1 -p ARP -e 86 -c 2 -a 0 -i 0 -k MAC 
- -t 1.605133651 -s 1 -d -1 -p ARP -e 86 -c 2 -a 0 -i 0 -k MAC
h -t 1.605133651 -s 1 -d -1 -p ARP -e 86 -c 2 -a 0 -i 0 -k MAC
r -t 1.605821984 -s 0 -d -1 -p ARP -e 28 -c 2 -a 0 -i 0 -k MAC
+ -t 1.605831984 -s 0 -d -1 -p ACK -e 38 -c 2 -a 0 -i 0 -k MAC 
- -t 1.605831984 -s 0 -d -1 -p ACK -e 38 -c 2 -a 0 -i 0 -k MAC
h -t 1.605831984 -s 0 -d -1 -p ACK -e 38 -c 2 -a 0 -i 0 -k MAC
r -t 1.606136317 -s 1 -d -1 -p ACK -e 38 -c 2 -a 0 -i 0 -k MAC
+ -t 1.606585984 -s 0 -d -1 -p RTS -e 44 -c 2 -a 0 -i 0 -k MAC 
- -t 1.606585984 -s 0 -d -1 -p RTS -e 44 -c 2 -a 0 -i 0 -k MAC
h -t 1.606585984 -s 0 -d -1 -p RTS -e 44 -c 2 -a 0 -i 0 -k MAC
r -t 1.606938317 -s 1 -d -1 -p RTS -e 44 -c 2 -a 0 -i 0 -k MAC
+ -t 1.606948317 -s 1 -d -1 -p CTS -e 38 -c 2 -a 0 -i 0 -k MAC 
- -t 1.606948317 -s 1 -d -1 -p CTS -e 38 -c 2 -a 0 -i 0 -k MAC
h -t 1.606948317 -s 1 -d -1 -p CTS -e 38 -c 2 -a 0 -i 0 -k MAC
r -t 1.607252651 -s 0 -d -1 -p CTS -e 38 -c 2 -a 0 -i 0 -k MAC
+ -t 1.607262651 -s 0 -d 1 -p tcp -e 138 -c 2 -a 0 -i 3 -k MAC 
- -t 1.607262651 -s 0 -d 1 -p tcp -e 138 -c 2 -a 0 -i 3 -k MAC
h -t 1.607262651 -s 0 -d 1 -p tcp -e 138 -c 2 -a 0 -i 3 -k MAC
r -t 1.608366984 -s 1 -d 1 -p tcp -e 80 -c 2 -a 0 -i 3 -k MAC
+ -t 1.608376984 -s 1 -d -1 -p ACK -e 38 -c 2 -a 0 -i 0 -k MAC 
- -t 1.608376984 -s 1 -d -1 -p ACK -e 38 -c 2 -a 0 -i 0 -k MAC
h -t 1.608376984 -s 1 -d -1 -p ACK -e 38 -c 2 -a 0 -i 0 -k MAC
r -t 1.608391984 -s 1 -d 1 -p tcp -e 80 -c 2 -a 0 -i 3 -k AGT
+ -t 1.608391984 -s 1 -d -1 -p ack -e 40 -c 2 -a 0 -i 5 -k AGT 
- -t 1.608391984 -s 1 -d -1 -p ack -e 40 -c 2 -a 0 -i 5 -k AGT
h -t 1.608391984 -s 1 -d -1 -p ack -e 40 -c 2 -a 0 -i 5 -k AGT
+ -t 1.608391984 -s 1 -d 0 -p ack -e 60 -c 2 -a 0 -i 5 -k RTR 
- -t 1.608391984 -s 1 -d 0 -p ack -e 60 -c 2 -a 0 -i 5 -k RTR
h -t 1.608391984 -s 1 -d 0 -p ack -e 60 -c 2 -a 0 -i 5 -k RTR
r -t 1.608681317 -s 0 -d -1 -p ACK -e 38 -c 2 -a 0 -i 0 -k MAC
+ -t 1.608890984 -s 1 -d -1 -p RTS -e 44 -c 2 -a 0 -i 0 -k MAC 
- -t 1.608890984 -s 1 -d -1 -p RTS -e 44 -c 2 -a 0 -i 0 -k MAC
h -t 1.608890984 -s 1 -d -1 -p RTS -e 44 -c 2 -a 0 -i 0 -k MAC
r -t 1.609243317 -s 0 -d -1 -p RTS -e 44 -c 2 -a 0 -i 0 -k MAC
+ -t 1.609253317 -s 0 -d -1 -p CTS -e 38 -c 2 -a 0 -i 0 -k MAC 
- -t 1.609253317 -s 0 -d -1 -p CTS -e 38 -c 2 -a 0 -i 0 -k MAC
h -t 1.609253317 -s 0 -d -1 -p CTS -e 38 -c 2 -a 0 -i 0 -k MAC
r -t 1.609557651 -s 1 -d -1 -p CTS -e 38 -c 2 -a 0 -i 0 -k MAC
+ -t 1.609567651 -s 1 -d 0 -p ack -e 118 -c 2 -a 0 -i 5 -k MAC 
- -t 1.609567651 -s 1 -d 0 -p ack -e 118 -c 2 -a 0 -i 5 -k MAC
h -t 1.609567651 -s 1 -d 0 -p ack -e 118 -c 2 -a 0 -i 5 -k MAC
r -t 1.610511984 -s 0 -d 0 -p ack -e 60 -c 2 -a 0 -i 5 -k MAC
+ -t 1.610521984 -s 0 -d -1 -p ACK -e 38 -c 2 -a 0 -i 0 -k MAC 
- -t 1.610521984 -s 0 -d -1 -p ACK -e 38 -c 2 -a 0 -i 0 -k MAC
h -t 1.610521984 -s 0 -d -1 -p ACK -e 38 -c 2 -a 0 -i 0 -k MAC
r -t 1.610536984 -s 0 -d 0 -p ack -e 60 -c 2 -a 0 -i 5 -k AGT
+ -t 1.610536984 -s 0 -d -1 -p tcp -e 1540 -c 2 -a 0 -i 6 -k AGT 
- -t 1.610536984 -s 0 -d -1 -p tcp -e 1540 -c 2 -a 0 -i 6 -k AGT
h -t 1.610536984 -s 0 -d -1 -p tcp -e 1540 -c 2 -a 0 -i 6 -k AGT
+ -t 1.610536984 -s 0 -d 1 -p tcp -e 1560 -c 2 -a 0 -i 6 -k RTR 
- -t 1.610536984 -s 0 -d 1 -p tcp -e 1560 -c 2 -a 0 -i 6 -k RTR
h -t 1.610536984 -s 0 -d 1 -p tcp -e 1560 -c 2 -a 0 -i 6 -k RTR
+ -t 1.610536984 -s 0 -d -1 -p tcp -e 1540 -c 2 -a 0 -i 7 -k AGT 
- -t 1.610536984 -s 0 -d -1 -p tcp -e 1540 -c 2 -a 0 -i 7 -k AGT
h -t 1.610536984 -s 0 -d -1 -p tcp -e 1540 -c 2 -a 0 -i 7 -k AGT
+ -t 1.610536984 -s 0 -d 1 -p tcp -e 1560 -c 2 -a 0 -i 7 -k RTR 
- -t 1.610536984 -s 0 -d 1 -p tcp -e 1560 -c 2 -a 0 -i 7 -k RTR
h -t 1.610536984 -s 0 -d 1 -p tcp -e 1560 -c 2 -a 0 -i 7 -k RTR
r -t 1.610826317 -s 1 -d -1 -p ACK -e 38 -c 2 -a 0 -i 0 -k MAC
+ -t 1.611095984 -s 0 -d -1 -p RTS -e 44 -c 2 -a 0 -i 0 -k MAC 
- -t 1.611095984 -s 0 -d -1 -p RTS -e 44 -c 2 -a 0 -i 0 -k MAC
h -t 1.611095984 -s 0 -d -1 -p RTS -e 44 -c 2 -a 0 -i 0 -k MAC
r -t 1.611448317 -s 1 -d -1 -p RTS -e 44 -c 2 -a 0 -i 0 -k MAC
+ -t 1.611458317 -s 1 -d -1 -p CTS -e 38 -c 2 -a 0 -i 0 -k MAC 
- -t 1.611458317 -s 1 -d -1 -p CTS -e 38 -c 2 -a 0 -i 0 -k MAC
h -t 1.611458317 -s 1 -d -1 -p CTS -e 38 -c 2 -a 0 -i 0 -k MAC
r -t 1.611762651 -s 0 -d -1 -p CTS -e 38 -c 2 -a 0 -i 0 -k MAC
+ -t 1.611772651 -s 0 -d 1 -p tcp -e 1618 -c 2 -a 0 -i 6 -k MAC 
- -t 1.611772651 -s 0 -d 1 -p tcp -e 1618 -c 2 -a 0 -i 6 -k MAC
h -t 1.611772651 -s 0 -d 1 -p tcp -e 1618 -c 2 -a 0 -i 6 -k MAC
r -t 1.624716984 -s 1 -d 1 -p tcp -e 1560 -c 2 -a 0 -i 6 -k MAC
+ -t 1.624726984 -s 1 -d -1 -p ACK -e 38 -c 2 -a 0 -i 0 -k MAC 
- -t 1.624726984 -s 1 -d -1 -p ACK -e 38 -c 2 -a 0 -i 0 -k MAC
h -t 1.624726984 -s 1 -d -1 -p ACK -e 38 -c 2 -a 0 -i 0 -k MAC
r -t 1.624741984 -s 1 -d 1 -p tcp -e 1560 -c 2 -a 0 -i 6 -k AGT
+ -t 1.624741984 -s 1 -d -1 -p ack -e 40 -c 2 -a 0 -i 8 -k AGT 
- -t 1.624741984 -s 1 -d -1 -p ack -e 40 -c 2 -a 0 -i 8 -k AGT
h -t 1.624741984 -s 1 -d -1 -p ack -e 40 -c 2 -a 0 -i 8 -k AGT
+ -t 1.624741984 -s 1 -d 0 -p ack -e 60 -c 2 -a 0 -i 8 -k RTR 
- -t 1.624741984 -s 1 -d 0 -p ack -e 60 -c 2 -a 0 -i 8 -k RTR
h -t 1.624741984 -s 1 -d 0 -p ack -e 60 -c 2 -a 0 -i 8 -k RTR
r -t 1.625031317 -s 0 -d -1 -p ACK -e 38 -c 2 -a 0 -i 0 -k MAC
+ -t 1.625380984 -s 1 -d -1 -p RTS -e 44 -c 2 -a 0 -i 0 -k MAC 
- -t 1.625380984 -s 1 -d -1 -p RTS -e 44 -c 2 -a 0 -i 0 -k MAC
h -t 1.625380984 -s 1 -d -1 -p RTS -e 44 -c 2 -a 0 -i 0 -k MAC
r -t 1.625733317 -s 0 -d -1 -p RTS -e 44 -c 2 -a 0 -i 0 -k MAC
+ -t 1.625743317 -s 0 -d -1 -p CTS -e 38 -c 2 -a 0 -i 0 -k MAC 
- -t 1.625743317 -s 0 -d -1 -p CTS -e 38 -c 2 -a 0 -i 0 -k MAC
h -t 1.625743317 -s 0 -d -1 -p CTS -e 38 -c 2 -a 0 -i 0 -k MAC
r -t 1.626047651 -s 1 -d -1 -p CTS -e 38 -c 2 -a 0 -i 0 -k MAC
+ -t 1.626057651 -s 1 -d 0 -p ack -e 118 -c 2 -a 0 -i 8 -k MAC 
- -t 1.626057651 -s 1 -d 0 -p ack -e 118 -c 2 -a 0 -i 8 -k MAC
h -t 1.626057651 -s 1 -d 0 -p ack -e 118 -c 2 -a 0 -i 8 -k MAC
r -t 1.627001984 -s 0 -d 0 -p ack -e 60 -c 2 -a 0 -i 8 -k MAC
+ -t 1.627011984 -s 0 -d -1 -p ACK -e 38 -c 2 -a 0 -i 0 -k MAC 
- -t 1.627011984 -s 0 -d -1 -p ACK -e 38 -c 2 -a 0 -i 0 -k MAC
h -t 1.627011984 -s 0 -d -1 -p ACK -e 38 -c 2 -a 0 -i 0 -k MAC
r -t 1.627026984 -s 0 -d 0 -p ack -e 60 -c 2 -a 0 -i 8 -k AGT
+ -t 1.627026984 -s 0 -d -1 -p tcp -e 1540 -c 2 -a 0 -i 9 -k AGT 
- -t 1.627026984 -s 0 -d -1 -p tcp -e 1540 -c 2 -a 0 -i 9 -k AGT
h -t 1.627026984 -s 0 -d -1 -p tcp -e 1540 -c 2 -a 0 -i 9 -k AGT
+ -t 1.627026984 -s 0 -d 1 -p tcp -e 1560 -c 2 -a 0 -i 9 -k RTR 
- -t 1.627026984 -s 0 -d 1 -p tcp -e 1560 -c 2 -a 0 -i 9 -k RTR
h -t 1.627026984 -s 0 -d 1 -p tcp -e 1560 -c 2 -a 0 -i 9 -k RTR
+ -t 1.627026984 -s 0 -d -1 -p tcp -e 1540 -c 2 -a 0 -i 10 -k AGT 
- -t 1.627026984 -s 0 -d -1 -p tcp -e 1540 -c 2 -a 0 -i 10 -k AGT
h -t 1.627026984 -s 0 -d -1 -p tcp -e 1540 -c 2 -a 0 -i 10 -k AGT
+ -t 1.627026984 -s 0 -d 1 -p tcp -e 1560 -c 2 -a 0 -i 10 -k RTR 
- -t 1.627026984 -s 0 -d 1 -p tcp -e 1560 -c 2 -a 0 -i 10 -k RTR
h -t 1.627026984 -s 0 -d 1 -p tcp -e 1560 -c 2 -a 0 -i 10 -k RTR
r -t 1.627316317 -s 1 -d -1 -p ACK -e 38 -c 2 -a 0 -i 0 -k MAC
+ -t 1.627445984 -s 0 -d -1 -p RTS -e 44 -c 2 -a 0 -i 0 -k MAC 
- -t 1.627445984 -s 0 -d -1 -p RTS -e 44 -c 2 -a 0 -i 0 -k MAC
h -t 1.627445984 -s 0 -d -1 -p RTS -e 44 -c 2 -a 0 -i 0 -k MAC
r -t 1.627798317 -s 1 -d -1 -p RTS -e 44 -c 2 -a 0 -i 0 -k MAC
+ -t 1.627808317 -s 1 -d -1 -p CTS -e 38 -c 2 -a 0 -i 0 -k MAC 
- -t 1.627808317 -s 1 -d -1 -p CTS -e 38 -c 2 -a 0 -i 0 -k MAC
h -t 1.627808317 -s 1 -d -1 -p CTS -e 38 -c 2 -a 0 -i 0 -k MAC
r -t 1.628112651 -s 0 -d -1 -p CTS -e 38 -c 2 -a 0 -i 0 -k MAC
+ -t 1.628122651 -s 0 -d 1 -p tcp -e 1618 -c 2 -a 0 -i 7 -k MAC 
- -t 1.628122651 -s 0 -d 1 -p tcp -e 1618 -c 2 -a 0 -i 7 -k MAC
h -t 1.628122651 -s 0 -d 1 -p tcp -e 1618 -c 2 -a 0 -i 7 -k MAC
+ -t 1.637007294 -s 3 -d -1 -p message -e 32 -c 2 -a 0 -i 11 -k RTR 
- -t 1.637007294 -s 3 -d -1 -p message -e 32 -c 2 -a 0 -i 11 -k RTR
h -t 1.637007294 -s 3 -d -1 -p message -e 32 -c 2 -a 0 -i 11 -k RTR
r -t 1.641066984 -s 1 -d 1 -p tcp -e 1560 -c 2 -a 0 -i 7 -k MAC
+ -t 1.641076984 -s 1 -d -1 -p ACK -e 38 -c 2 -a 0 -i 0 -k MAC 
- -t 1.641076984 -s 1 -d -1 -p ACK -e 38 -c 2 -a 0 -i 0 -k MAC
h -t 1.641076984 -s 1 -d -1 -p ACK -e 38 -c 2 -a 0 -i 0 -k MAC
r -t 1.641091984 -s 1 -d 1 -p tcp -e 1560 -c 2 -a 0 -i 7 -k AGT
+ -t 1.641091984 -s 1 -d -1 -p ack -e 40 -c 2 -a 0 -i 12 -k AGT 
- -t 1.641091984 -s 1 -d -1 -p ack -e 40 -c 2 -a 0 -i 12 -k AGT
h -t 1.641091984 -s 1 -d -1 -p ack -e 40 -c 2 -a 0 -i 12 -k AGT
+ -t 1.641091984 -s 1 -d 0 -p ack -e 60 -c 2 -a 0 -i 12 -k RTR 
- -t 1.641091984 -s 1 -d 0 -p ack -e 60 -c 2 -a 0 -i 12 -k RTR
h -t 1.641091984 -s 1 -d 0 -p ack -e 60 -c 2 -a 0 -i 12 -k RTR
r -t 1.641381317 -s 0 -d -1 -p ACK -e 38 -c 2 -a 0 -i 0 -k MAC
+ -t 1.641510984 -s 1 -d -1 -p RTS -e 44 -c 2 -a 0 -i 0 -k MAC 
- -t 1.641510984 -s 1 -d -1 -p RTS -e 44 -c 2 -a 0 -i 0 -k MAC
h -t 1.641510984 -s 1 -d -1 -p RTS -e 44 -c 2 -a 0 -i 0 -k MAC
r -t 1.641863317 -s 0 -d -1 -p RTS -e 44 -c 2 -a 0 -i 0 -k MAC
+ -t 1.641873317 -s 0 -d -1 -p CTS -e 38 -c 2 -a 0 -i 0 -k MAC 
- -t 1.641873317 -s 0 -d -1 -p CTS -e 38 -c 2 -a 0 -i 0 -k MAC
h -t 1.641873317 -s 0 -d -1 -p CTS -e 38 -c 2 -a 0 -i 0 -k MAC
r -t 1.642177651 -s 1 -d -1 -p CTS -e 38 -c 2 -a 0 -i 0 -k MAC
+ -t 1.642187651 -s 1 -d 0 -p ack -e 118 -c 2 -a 0 -i 12 -k MAC 
- -t 1.642187651 -s 1 -d 0 -p ack -e 118 -c 2 -a 0 -i 12 -k MAC
h -t 1.642187651 -s 1 -d 0 -p ack -e 118 -c 2 -a 0 -i 12 -k MAC
r -t 1.643131984 -s 0 -d 0 -p ack -e 60 -c 2 -a 0 -i 12 -k MAC
+ -t 1.643141984 -s 0 -d -1 -p ACK -e 38 -c 2 -a 0 -i 0 -k MAC 
- -t 1.643141984 -s 0 -d -1 -p ACK -e 38 -c 2 -a 0 -i 0 -k MAC
h -t 1.643141984 -s 0 -d -1 -p ACK -e 38 -c 2 -a 0 -i 0 -k MAC
r -t 1.643156984 -s 0 -d 0 -p ack -e 60 -c 2 -a 0 -i 12 -k AGT
+ -t 1.643156984 -s 0 -d -1 -p tcp -e 1540 -c 2 -a 0 -i 13 -k AGT 
- -t 1.643156984 -s 0 -d -1 -p tcp -e 1540 -c 2 -a 0 -i 13 -k AGT
h -t 1.643156984 -s 0 -d -1 -p tcp -e 1540 -c 2 -a 0 -i 13 -k AGT
+ -t 1.643156984 -s 0 -d 1 -p tcp -e 1560 -c 2 -a 0 -i 13 -k RTR 
- -t 1.643156984 -s 0 -d 1 -p tcp -e 1560 -c 2 -a 0 -i 13 -k RTR
h -t 1.643156984 -s 0 -d 1 -p tcp -e 1560 -c 2 -a 0 -i 13 -k RTR
+ -t 1.643156984 -s 0 -d -1 -p tcp -e 1540 -c 2 -a 0 -i 14 -k AGT 
- -t 1.643156984 -s 0 -d -1 -p tcp -e 1540 -c 2 -a 0 -i 14 -k AGT
h -t 1.643156984 -s 0 -d -1 -p tcp -e 1540 -c 2 -a 0 -i 14 -k AGT
+ -t 1.643156984 -s 0 -d 1 -p tcp -e 1560 -c 2 -a 0 -i 14 -k RTR 
- -t 1.643156984 -s 0 -d 1 -p tcp -e 1560 -c 2 -a 0 -i 14 -k RTR
h -t 1.643156984 -s 0 -d 1 -p tcp -e 1560 -c 2 -a 0 -i 14 -k RTR
r -t 1.643446317 -s 1 -d -1 -p ACK -e 38 -c 2 -a 0 -i 0 -k MAC
+ -t 1.643535984 -s 0 -d -1 -p RTS -e 44 -c 2 -a 0 -i 0 -k MAC 
- -t 1.643535984 -s 0 -d -1 -p RTS -e 44 -c 2 -a 0 -i 0 -k MAC
h -t 1.643535984 -s 0 -d -1 -p RTS -e 44 -c 2 -a 0 -i 0 -k MAC
r -t 1.643888317 -s 1 -d -1 -p RTS -e 44 -c 2 -a 0 -i 0 -k MAC
+ -t 1.643898317 -s 1 -d -1 -p CTS -e 38 -c 2 -a 0 -i 0 -k MAC 
- -t 1.643898317 -s 1 -d -1 -p CTS -e 38 -c 2 -a 0 -i 0 -k MAC
h -t 1.643898317 -s 1 -d -1 -p CTS -e 38 -c 2 -a 0 -i 0 -k MAC
r -t 1.644202651 -s 0 -d -1 -p CTS -e 38 -c 2 -a 0 -i 0 -k MAC
+ -t 1.644212651 -s 0 -d 1 -p tcp -e 1618 -c 2 -a 0 -i 9 -k MAC 
- -t 1.644212651 -s 0 -d 1 -p tcp -e 1618 -c 2 -a 0 -i 9 -k MAC
h -t 1.644212651 -s 0 -d 1 -p tcp -e 1618 -c 2 -a 0 -i 9 -k MAC
r -t 1.657156984 -s 1 -d 1 -p tcp -e 1560 -c 2 -a 0 -i 9 -k MAC
+ -t 1.657166984 -s 1 -d -1 -p ACK -e 38 -c 2 -a 0 -i 0 -k MAC 
- -t 1.657166984 -s 1 -d -1 -p ACK -e 38 -c 2 -a 0 -i 0 -k MAC
h -t 1.657166984 -s 1 -d -1 -p ACK -e 38 -c 2 -a 0 -i 0 -k MAC
r -t 1.657181984 -s 1 -d 1 -p tcp -e 1560 -c 2 -a 0 -i 9 -k AGT
+ -t 1.657181984 -s 1 -d -1 -p ack -e 40 -c 2 -a 0 -i 15 -k AGT 
- -t 1.657181984 -s 1 -d -1 -p ack -e 40 -c 2 -a 0 -i 15 -k AGT
h -t 1.657181984 -s 1 -d -1 -p ack -e 40 -c 2 -a 0 -i 15 -k AGT
+ -t 1.657181984 -s 1 -d 0 -p ack -e 60 -c 2 -a 0 -i 15 -k RTR 
- -t 1.657181984 -s 1 -d 0 -p ack -e 60 -c 2 -a 0 -i 15 -k RTR
h -t 1.657181984 -s 1 -d 0 -p ack -e 60 -c 2 -a 0 -i 15 -k RTR
r -t 1.657471317 -s 0 -d -1 -p ACK -e 38 -c 2 -a 0 -i 0 -k MAC
+ -t 1.657641317 -s 3 -d -1 -p message -e 90 -c 2 -a 0 -i 11 -k MAC 
- -t 1.657641317 -s 3 -d -1 -p message -e 90 -c 2 -a 0 -i 11 -k MAC
h -t 1.657641317 -s 3 -d -1 -p message -e 90 -c 2 -a 0 -i 11 -k MAC
r -t 1.658361553 -s 4 -d -1 -p message -e 32 -c 2 -a 0 -i 11 -k MAC
r -t 1.658361651 -s 1 -d -1 -p message -e 32 -c 2 -a 0 -i 11 -k MAC
r -t 1.658361651 -s 2 -d -1 -p message -e 32 -c 2 -a 0 -i 11 -k MAC
r -t 1.658361789 -s 0 -d -1 -p message -e 32 -c 2 -a 0 -i 11 -k MAC
r -t 1.658386553 -s 4 -d -1 -p message -e 32 -c 2 -a 0 -i 11 -k RTR
r -t 1.658386651 -s 1 -d -1 -p message -e 32 -c 2 -a 0 -i 11 -k RTR
r -t 1.658386651 -s 2 -d -1 -p message -e 32 -c 2 -a 0 -i 11 -k RTR
r -t 1.658386789 -s 0 -d -1 -p message -e 32 -c 2 -a 0 -i 11 -k RTR
+ -t 1.658511789 -s 0 -d -1 -p RTS -e 44 -c 2 -a 0 -i 0 -k MAC 
- -t 1.658511789 -s 0 -d -1 -p RTS -e 44 -c 2 -a 0 -i 0 -k MAC
h -t 1.658511789 -s 0 -d -1 -p RTS -e 44 -c 2 -a 0 -i 0 -k MAC
r -t 1.658864122 -s 1 -d -1 -p RTS -e 44 -c 2 -a 0 -i 0 -k MAC
+ -t 1.658874122 -s 1 -d -1 -p CTS -e 38 -c 2 -a 0 -i 0 -k MAC 
- -t 1.658874122 -s 1 -d -1 -p CTS -e 38 -c 2 -a 0 -i 0 -k MAC
h -t 1.658874122 -s 1 -d -1 -p CTS -e 38 -c 2 -a 0 -i 0 -k MAC
r -t 1.659178455 -s 0 -d -1 -p CTS -e 38 -c 2 -a 0 -i 0 -k MAC
+ -t 1.659188455 -s 0 -d 1 -p tcp -e 1618 -c 2 -a 0 -i 10 -k MAC 
- -t 1.659188455 -s 0 -d 1 -p tcp -e 1618 -c 2 -a 0 -i 10 -k MAC
h -t 1.659188455 -s 0 -d 1 -p tcp -e 1618 -c 2 -a 0 -i 10 -k MAC
r -t 1.672132789 -s 1 -d 1 -p tcp -e 1560 -c 2 -a 0 -i 10 -k MAC
+ -t 1.672142789 -s 1 -d -1 -p ACK -e 38 -c 2 -a 0 -i 0 -k MAC 
- -t 1.672142789 -s 1 -d -1 -p ACK -e 38 -c 2 -a 0 -i 0 -k MAC
h -t 1.672142789 -s 1 -d -1 -p ACK -e 38 -c 2 -a 0 -i 0 -k MAC
r -t 1.672157789 -s 1 -d 1 -p tcp -e 1560 -c 2 -a 0 -i 10 -k AGT
+ -t 1.672157789 -s 1 -d -1 -p ack -e 40 -c 2 -a 0 -i 16 -k AGT 
- -t 1.672157789 -s 1 -d -1 -p ack -e 40 -c 2 -a 0 -i 16 -k AGT
h -t 1.672157789 -s 1 -d -1 -p ack -e 40 -c 2 -a 0 -i 16 -k AGT
+ -t 1.672157789 -s 1 -d 0 -p ack -e 60 -c 2 -a 0 -i 16 -k RTR 
- -t 1.672157789 -s 1 -d 0 -p ack -e 60 -c 2 -a 0 -i 16 -k RTR
h -t 1.672157789 -s 1 -d 0 -p ack -e 60 -c 2 -a 0 -i 16 -k RTR
r -t 1.672447122 -s 0 -d -1 -p ACK -e 38 -c 2 -a 0 -i 0 -k MAC
+ -t 1.672776789 -s 1 -d -1 -p RTS -e 44 -c 2 -a 0 -i 0 -k MAC 
- -t 1.672776789 -s 1 -d -1 -p RTS -e 44 -c 2 -a 0 -i 0 -k MAC
h -t 1.672776789 -s 1 -d -1 -p RTS -e 44 -c 2 -a 0 -i 0 -k MAC
r -t 1.673129122 -s 0 -d -1 -p RTS -e 44 -c 2 -a 0 -i 0 -k MAC
+ -t 1.673139122 -s 0 -d -1 -p CTS -e 38 -c 2 -a 0 -i 0 -k MAC 
- -t 1.673139122 -s 0 -d -1 -p CTS -e 38 -c 2 -a 0 -i 0 -k MAC
h -t 1.673139122 -s 0 -d -1 -p CTS -e 38 -c 2 -a 0 -i 0 -k MAC
r -t 1.673443455 -s 1 -d -1 -p CTS -e 38 -c 2 -a 0 -i 0 -k MAC
+ -t 1.673453455 -s 1 -d 0 -p ack -e 118 -c 2 -a 0 -i 15 -k MAC 
- -t 1.673453455 -s 1 -d 0 -p ack -e 118 -c 2 -a 0 -i 15 -k MAC
h -t 1.673453455 -s 1 -d 0 -p ack -e 118 -c 2 -a 0 -i 15 -k MAC
r -t 1.674397789 -s 0 -d 0 -p ack -e 60 -c 2 -a 0 -i 15 -k MAC
+ -t 1.674407789 -s 0 -d -1 -p ACK -e 38 -c 2 -a 0 -i 0 -k MAC 
- -t 1.674407789 -s 0 -d -1 -p ACK -e 38 -c 2 -a 0 -i 0 -k MAC
h -t 1.674407789 -s 0 -d -1 -p ACK -e 38 -c 2 -a 0 -i 0 -k MAC
r -t 1.674422789 -s 0 -d 0 -p ack -e 60 -c 2 -a 0 -i 15 -k AGT
+ -t 1.674422789 -s 0 -d -1 -p tcp -e 1540 -c 2 -a 0 -i 17 -k AGT 
- -t 1.674422789 -s 0 -d -1 -p tcp -e 1540 -c 2 -a 0 -i 17 -k AGT
h -t 1.674422789 -s 0 -d -1 -p tcp -e 1540 -c 2 -a 0 -i 17 -k AGT
+ -t 1.674422789 -s 0 -d 1 -p tcp -e 1560 -c 2 -a 0 -i 17 -k RTR 
- -t 1.674422789 -s 0 -d 1 -p tcp -e 1560 -c 2 -a 0 -i 17 -k RTR
h -t 1.674422789 -s 0 -d 1 -p tcp -e 1560 -c 2 -a 0 -i 17 -k RTR
+ -t 1.674422789 -s 0 -d -1 -p tcp -e 1540 -c 2 -a 0 -i 18 -k AGT 
- -t 1.674422789 -s 0 -d -1 -p tcp -e 1540 -c 2 -a 0 -i 18 -k AGT
h -t 1.674422789 -s 0 -d -1 -p tcp -e 1540 -c 2 -a 0 -i 18 -k AGT
+ -t 1.674422789 -s 0 -d 1 -p tcp -e 1560 -c 2 -a 0 -i 18 -k RTR 
- -t 1.674422789 -s 0 -d 1 -p tcp -e 1560 -c 2 -a 0 -i 18 -k RTR
h -t 1.674422789 -s 0 -d 1 -p tcp -e 1560 -c 2 -a 0 -i 18 -k RTR
r -t 1.674712122 -s 1 -d -1 -p ACK -e 38 -c 2 -a 0 -i 0 -k MAC
+ -t 1.674822122 -s 1 -d -1 -p RTS -e 44 -c 2 -a 0 -i 0 -k MAC 
- -t 1.674822122 -s 1 -d -1 -p RTS -e 44 -c 2 -a 0 -i 0 -k MAC
h -t 1.674822122 -s 1 -d -1 -p RTS -e 44 -c 2 -a 0 -i 0 -k MAC
r -t 1.675174455 -s 0 -d -1 -p RTS -e 44 -c 2 -a 0 -i 0 -k MAC
+ -t 1.675184455 -s 0 -d -1 -p CTS -e 38 -c 2 -a 0 -i 0 -k MAC 
- -t 1.675184455 -s 0 -d -1 -p CTS -e 38 -c 2 -a 0 -i 0 -k MAC
h -t 1.675184455 -s 0 -d -1 -p CTS -e 38 -c 2 -a 0 -i 0 -k MAC
r -t 1.675488789 -s 1 -d -1 -p CTS -e 38 -c 2 -a 0 -i 0 -k MAC
+ -t 1.675498789 -s 1 -d 0 -p ack -e 118 -c 2 -a 0 -i 16 -k MAC 
- -t 1.675498789 -s 1 -d 0 -p ack -e 118 -c 2 -a 0 -i 16 -k MAC
h -t 1.675498789 -s 1 -d 0 -p ack -e 118 -c 2 -a 0 -i 16 -k MAC
r -t 1.676443122 -s 0 -d 0 -p ack -e 60 -c 2 -a 0 -i 16 -k MAC
+ -t 1.676453122 -s 0 -d -1 -p ACK -e 38 -c 2 -a 0 -i 0 -k MAC 
- -t 1.676453122 -s 0 -d -1 -p ACK -e 38 -c 2 -a 0 -i 0 -k MAC
h -t 1.676453122 -s 0 -d -1 -p ACK -e 38 -c 2 -a 0 -i 0 -k MAC
r -t 1.676468122 -s 0 -d 0 -p ack -e 60 -c 2 -a 0 -i 16 -k AGT
+ -t 1.676468122 -s 0 -d -1 -p tcp -e 1540 -c 2 -a 0 -i 19 -k AGT 
- -t 1.676468122 -s 0 -d -1 -p tcp -e 1540 -c 2 -a 0 -i 19 -k AGT
h -t 1.676468122 -s 0 -d -1 -p tcp -e 1540 -c 2 -a 0 -i 19 -k AGT
+ -t 1.676468122 -s 0 -d 1 -p tcp -e 1560 -c 2 -a 0 -i 19 -k RTR 
- -t 1.676468122 -s 0 -d 1 -p tcp -e 1560 -c 2 -a 0 -i 19 -k RTR
h -t 1.676468122 -s 0 -d 1 -p tcp -e 1560 -c 2 -a 0 -i 19 -k RTR
+ -t 1.676468122 -s 0 -d -1 -p tcp -e 1540 -c 2 -a 0 -i 20 -k AGT 
- -t 1.676468122 -s 0 -d -1 -p tcp -e 1540 -c 2 -a 0 -i 20 -k AGT
h -t 1.676468122 -s 0 -d -1 -p tcp -e 1540 -c 2 -a 0 -i 20 -k AGT
+ -t 1.676468122 -s 0 -d 1 -p tcp -e 1560 -c 2 -a 0 -i 20 -k RTR 
- -t 1.676468122 -s 0 -d 1 -p tcp -e 1560 -c 2 -a 0 -i 20 -k RTR
h -t 1.676468122 -s 0 -d 1 -p tcp -e 1560 -c 2 -a 0 -i 20 -k RTR
r -t 1.676757455 -s 1 -d -1 -p ACK -e 38 -c 2 -a 0 -i 0 -k MAC
+ -t 1.677067122 -s 0 -d -1 -p RTS -e 44 -c 2 -a 0 -i 0 -k MAC 
- -t 1.677067122 -s 0 -d -1 -p RTS -e 44 -c 2 -a 0 -i 0 -k MAC
h -t 1.677067122 -s 0 -d -1 -p RTS -e 44 -c 2 -a 0 -i 0 -k MAC
r -t 1.677419455 -s 1 -d -1 -p RTS -e 44 -c 2 -a 0 -i 0 -k MAC
+ -t 1.677429455 -s 1 -d -1 -p CTS -e 38 -c 2 -a 0 -i 0 -k MAC 
- -t 1.677429455 -s 1 -d -1 -p CTS -e 38 -c 2 -a 0 -i 0 -k MAC
h -t 1.677429455 -s 1 -d -1 -p CTS -e 38 -c 2 -a 0 -i 0 -k MAC
r -t 1.677733789 -s 0 -d -1 -p CTS -e 38 -c 2 -a 0 -i 0 -k MAC
+ -t 1.677743789 -s 0 -d 1 -p tcp -e 1618 -c 2 -a 0 -i 13 -k MAC 
- -t 1.677743789 -s 0 -d 1 -p tcp -e 1618 -c 2 -a 0 -i 13 -k MAC
h -t 1.677743789 -s 0 -d 1 -p tcp -e 1618 -c 2 -a 0 -i 13 -k MAC
r -t 1.690688122 -s 1 -d 1 -p tcp -e 1560 -c 2 -a 0 -i 13 -k MAC
+ -t 1.690698122 -s 1 -d -1 -p ACK -e 38 -c 2 -a 0 -i 0 -k MAC 
- -t 1.690698122 -s 1 -d -1 -p ACK -e 38 -c 2 -a 0 -i 0 -k MAC
h -t 1.690698122 -s 1 -d -1 -p ACK -e 38 -c 2 -a 0 -i 0 -k MAC
r -t 1.690713122 -s 1 -d 1 -p tcp -e 1560 -c 2 -a 0 -i 13 -k AGT
+ -t 1.690713122 -s 1 -d -1 -p ack -e 40 -c 2 -a 0 -i 21 -k AGT 
- -t 1.690713122 -s 1 -d -1 -p ack -e 40 -c 2 -a 0 -i 21 -k AGT
h -t 1.690713122 -s 1 -d -1 -p ack -e 40 -c 2 -a 0 -i 21 -k AGT
+ -t 1.690713122 -s 1 -d 0 -p ack -e 60 -c 2 -a 0 -i 21 -k RTR 
- -t 1.690713122 -s 1 -d 0 -p ack -e 60 -c 2 -a 0 -i 21 -k RTR
h -t 1.690713122 -s 1 -d 0 -p ack -e 60 -c 2 -a 0 -i 21 -k RTR
r -t 1.691002455 -s 0 -d -1 -p ACK -e 38 -c 2 -a 0 -i 0 -k MAC
+ -t 1.691392122 -s 1 -d -1 -p RTS -e 44 -c 2 -a 0 -i 0 -k MAC 
- -t 1.691392122 -s 1 -d -1 -p RTS -e 44 -c 2 -a 0 -i 0 -k MAC
h -t 1.691392122 -s 1 -d -1 -p RTS -e 44 -c 2 -a 0 -i 0 -k MAC
r -t 1.691744455 -s 0 -d -1 -p RTS -e 44 -c 2 -a 0 -i 0 -k MAC
+ -t 1.691754455 -s 0 -d -1 -p CTS -e 38 -c 2 -a 0 -i 0 -k MAC 
- -t 1.691754455 -s 0 -d -1 -p CTS -e 38 -c 2 -a 0 -i 0 -k MAC
h -t 1.691754455 -s 0 -d -1 -p CTS -e 38 -c 2 -a 0 -i 0 -k MAC
r -t 1.692058789 -s 1 -d -1 -p CTS -e 38 -c 2 -a 0 -i 0 -k MAC
+ -t 1.692068789 -s 1 -d 0 -p ack -e 118 -c 2 -a 0 -i 21 -k MAC 
- -t 1.692068789 -s 1 -d 0 -p ack -e 118 -c 2 -a 0 -i 21 -k MAC
h -t 1.692068789 -s 1 -d 0 -p ack -e 118 -c 2 -a 0 -i 21 -k MAC
r -t 1.693013122 -s 0 -d 0 -p ack -e 60 -c 2 -a 0 -i 21 -k MAC
+ -t 1.693023122 -s 0 -d -1 -p ACK -e 38 -c 2 -a 0 -i 0 -k MAC 
- -t 1.693023122 -s 0 -d -1 -p ACK -e 38 -c 2 -a 0 -i 0 -k MAC
h -t 1.693023122 -s 0 -d -1 -p ACK -e 38 -c 2 -a 0 -i 0 -k MAC
r -t 1.693038122 -s 0 -d 0 -p ack -e 60 -c 2 -a 0 -i 21 -k AGT
+ -t 1.693038122 -s 0 -d -1 -p tcp -e 1540 -c 2 -a 0 -i 22 -k AGT 
- -t 1.693038122 -s 0 -d -1 -p tcp -e 1540 -c 2 -a 0 -i 22 -k AGT
h -t 1.693038122 -s 0 -d -1 -p tcp -e 1540 -c 2 -a 0 -i 22 -k AGT
+ -t 1.693038122 -s 0 -d 1 -p tcp -e 1560 -c 2 -a 0 -i 22 -k RTR 
- -t 1.693038122 -s 0 -d 1 -p tcp -e 1560 -c 2 -a 0 -i 22 -k RTR
h -t 1.693038122 -s 0 -d 1 -p tcp -e 1560 -c 2 -a 0 -i 22 -k RTR
+ -t 1.693038122 -s 0 -d -1 -p tcp -e 1540 -c 2 -a 0 -i 23 -k AGT 
- -t 1.693038122 -s 0 -d -1 -p tcp -e 1540 -c 2 -a 0 -i 23 -k AGT
h -t 1.693038122 -s 0 -d -1 -p tcp -e 1540 -c 2 -a 0 -i 23 -k AGT
+ -t 1.693038122 -s 0 -d 1 -p tcp -e 1560 -c 2 -a 0 -i 23 -k RTR 
- -t 1.693038122 -s 0 -d 1 -p tcp -e 1560 -c 2 -a 0 -i 23 -k RTR
h -t 1.693038122 -s 0 -d 1 -p tcp -e 1560 -c 2 -a 0 -i 23 -k RTR
r -t 1.693327455 -s 1 -d -1 -p ACK -e 38 -c 2 -a 0 -i 0 -k MAC
+ -t 1.693557122 -s 0 -d -1 -p RTS -e 44 -c 2 -a 0 -i 0 -k MAC 
- -t 1.693557122 -s 0 -d -1 -p RTS -e 44 -c 2 -a 0 -i 0 -k MAC
h -t 1.693557122 -s 0 -d -1 -p RTS -e 44 -c 2 -a 0 -i 0 -k MAC
r -t 1.693909455 -s 1 -d -1 -p RTS -e 44 -c 2 -a 0 -i 0 -k MAC
+ -t 1.693919455 -s 1 -d -1 -p CTS -e 38 -c 2 -a 0 -i 0 -k MAC 
- -t 1.693919455 -s 1 -d -1 -p CTS -e 38 -c 2 -a 0 -i 0 -k MAC
h -t 1.693919455 -s 1 -d -1 -p CTS -e 38 -c 2 -a 0 -i 0 -k MAC
r -t 1.694223789 -s 0 -d -1 -p CTS -e 38 -c 2 -a 0 -i 0 -k MAC
+ -t 1.694233789 -s 0 -d 1 -p tcp -e 1618 -c 2 -a 0 -i 14 -k MAC 
- -t 1.694233789 -s 0 -d 1 -p tcp -e 1618 -c 2 -a 0 -i 14 -k MAC
h -t 1.694233789 -s 0 -d 1 -p tcp -e 1618 -c 2 -a 0 -i 14 -k MAC
r -t 1.707178122 -s 1 -d 1 -p tcp -e 1560 -c 2 -a 0 -i 14 -k MAC
+ -t 1.707188122 -s 1 -d -1 -p ACK -e 38 -c 2 -a 0 -i 0 -k MAC 
- -t 1.707188122 -s 1 -d -1 -p ACK -e 38 -c 2 -a 0 -i 0 -k MAC
h -t 1.707188122 -s 1 -d -1 -p ACK -e 38 -c 2 -a 0 -i 0 -k MAC
r -t 1.707203122 -s 1 -d 1 -p tcp -e 1560 -c 2 -a 0 -i 14 -k AGT
+ -t 1.707203122 -s 1 -d -1 -p ack -e 40 -c 2 -a 0 -i 24 -k AGT 
- -t 1.707203122 -s 1 -d -1 -p ack -e 40 -c 2 -a 0 -i 24 -k AGT
h -t 1.707203122 -s 1 -d -1 -p ack -e 40 -c 2 -a 0 -i 24 -k AGT
+ -t 1.707203122 -s 1 -d 0 -p ack -e 60 -c 2 -a 0 -i 24 -k RTR 
- -t 1.707203122 -s 1 -d 0 -p ack -e 60 -c 2 -a 0 -i 24 -k RTR
h -t 1.707203122 -s 1 -d 0 -p ack -e 60 -c 2 -a 0 -i 24 -k RTR
r -t 1.707492455 -s 0 -d -1 -p ACK -e 38 -c 2 -a 0 -i 0 -k MAC
+ -t 1.707662122 -s 1 -d -1 -p RTS -e 44 -c 2 -a 0 -i 0 -k MAC 
- -t 1.707662122 -s 1 -d -1 -p RTS -e 44 -c 2 -a 0 -i 0 -k MAC
h -t 1.707662122 -s 1 -d -1 -p RTS -e 44 -c 2 -a 0 -i 0 -k MAC
r -t 1.708014455 -s 0 -d -1 -p RTS -e 44 -c 2 -a 0 -i 0 -k MAC
+ -t 1.708024455 -s 0 -d -1 -p CTS -e 38 -c 2 -a 0 -i 0 -k MAC 
- -t 1.708024455 -s 0 -d -1 -p CTS -e 38 -c 2 -a 0 -i 0 -k MAC
h -t 1.708024455 -s 0 -d -1 -p CTS -e 38 -c 2 -a 0 -i 0 -k MAC
r -t 1.708328789 -s 1 -d -1 -p CTS -e 38 -c 2 -a 0 -i 0 -k MAC
+ -t 1.708338789 -s 1 -d 0 -p ack -e 118 -c 2 -a 0 -i 24 -k MAC 
- -t 1.708338789 -s 1 -d 0 -p ack -e 118 -c 2 -a 0 -i 24 -k MAC
h -t 1.708338789 -s 1 -d 0 -p ack -e 118 -c 2 -a 0 -i 24 -k MAC
r -t 1.709283122 -s 0 -d 0 -p ack -e 60 -c 2 -a 0 -i 24 -k MAC
+ -t 1.709293122 -s 0 -d -1 -p ACK -e 38 -c 2 -a 0 -i 0 -k MAC 
- -t 1.709293122 -s 0 -d -1 -p ACK -e 38 -c 2 -a 0 -i 0 -k MAC
h -t 1.709293122 -s 0 -d -1 -p ACK -e 38 -c 2 -a 0 -i 0 -k MAC
r -t 1.709308122 -s 0 -d 0 -p ack -e 60 -c 2 -a 0 -i 24 -k AGT
+ -t 1.709308122 -s 0 -d -1 -p tcp -e 1540 -c 2 -a 0 -i 25 -k AGT 
- -t 1.709308122 -s 0 -d -1 -p tcp -e 1540 -c 2 -a 0 -i 25 -k AGT
h -t 1.709308122 -s 0 -d -1 -p tcp -e 1540 -c 2 -a 0 -i 25 -k AGT
+ -t 1.709308122 -s 0 -d 1 -p tcp -e 1560 -c 2 -a 0 -i 25 -k RTR 
- -t 1.709308122 -s 0 -d 1 -p tcp -e 1560 -c 2 -a 0 -i 25 -k RTR
h -t 1.709308122 -s 0 -d 1 -p tcp -e 1560 -c 2 -a 0 -i 25 -k RTR
+ -t 1.709308122 -s 0 -d -1 -p tcp -e 1540 -c 2 -a 0 -i 26 -k AGT 
- -t 1.709308122 -s 0 -d -1 -p tcp -e 1540 -c 2 -a 0 -i 26 -k AGT
h -t 1.709308122 -s 0 -d -1 -p tcp -e 1540 -c 2 -a 0 -i 26 -k AGT