n -t * -s 0  -x 0 -y 101 -Z 0 -z 20  -v circle -c black
n -t * -s 1  -x 100 -y 101 -Z 0 -z 20  -v circle -c black
n -t * -s 2  -x 0 -y 1 -Z 0 -z 20  -v circle -c black
n -t * -s 3  -x 100 -y 1 -Z 0 -z 20  -v circle -c black
V -t * -v 1.0a5 -a 0
W -t * -x 225 -y 100
A -t * -n 1 -p 0 -o 0x7fffffff -c 30 -a 1
A -t * -h 1 -m 1073741823 -s 0
+ -t 0.184410103 -s 0 -d -1 -p message -e 32 -c 2 -a 0 -i 0 -k RTR 
- -t 0.184410103 -s 0 -d -1 -p message -e 32 -c 2 -a 0 -i 0 -k RTR
h -t 0.184410103 -s 0 -d -1 -p message -e 32 -c 2 -a 0 -i 0 -k RTR
+ -t 0.184845103 -s 0 -d -1 -p message -e 90 -c 2 -a 0 -i 0 -k MAC 
- -t 0.184845103 -s 0 -d -1 -p message -e 90 -c 2 -a 0 -i 0 -k MAC
h -t 0.184845103 -s 0 -d -1 -p message -e 90 -c 2 -a 0 -i 0 -k MAC
r -t 0.185565436 -s 2 -d -1 -p message -e 32 -c 2 -a 0 -i 0 -k MAC
r -t 0.185565436 -s 1 -d -1 -p message -e 32 -c 2 -a 0 -i 0 -k MAC
r -t 0.185565575 -s 3 -d -1 -p message -e 32 -c 2 -a 0 -i 0 -k MAC
r -t 0.185590436 -s 2 -d -1 -p message -e 32 -c 2 -a 0 -i 0 -k RTR
r -t 0.185590436 -s 1 -d -1 -p message -e 32 -c 2 -a 0 -i 0 -k RTR
r -t 0.185590575 -s 3 -d -1 -p message -e 32 -c 2 -a 0 -i 0 -k RTR
+ -t 0.634286779 -s 3 -d -1 -p message -e 32 -c 2 -a 0 -i 1 -k RTR 
- -t 0.634286779 -s 3 -d -1 -p message -e 32 -c 2 -a 0 -i 1 -k RTR
h -t 0.634286779 -s 3 -d -1 -p message -e 32 -c 2 -a 0 -i 1 -k RTR
+ -t 0.634901779 -s 3 -d -1 -p message -e 90 -c 2 -a 0 -i 1 -k MAC 
- -t 0.634901779 -s 3 -d -1 -p message -e 90 -c 2 -a 0 -i 1 -k MAC
h -t 0.634901779 -s 3 -d -1 -p message -e 90 -c 2 -a 0 -i 1 -k MAC
r -t 0.635622112 -s 1 -d -1 -p message -e 32 -c 2 -a 0 -i 1 -k MAC
r -t 0.635622112 -s 2 -d -1 -p message -e 32 -c 2 -a 0 -i 1 -k MAC
r -t 0.635622250 -s 0 -d -1 -p message -e 32 -c 2 -a 0 -i 1 -k MAC
r -t 0.635647112 -s 1 -d -1 -p message -e 32 -c 2 -a 0 -i 1 -k RTR
r -t 0.635647112 -s 2 -d -1 -p message -e 32 -c 2 -a 0 -i 1 -k RTR
r -t 0.635647250 -s 0 -d -1 -p message -e 32 -c 2 -a 0 -i 1 -k RTR
+ -t 0.883484847 -s 1 -d -1 -p message -e 32 -c 2 -a 0 -i 2 -k RTR 
- -t 0.883484847 -s 1 -d -1 -p message -e 32 -c 2 -a 0 -i 2 -k RTR
h -t 0.883484847 -s 1 -d -1 -p message -e 32 -c 2 -a 0 -i 2 -k RTR
+ -t 0.883719847 -s 1 -d -1 -p message -e 90 -c 2 -a 0 -i 2 -k MAC 
- -t 0.883719847 -s 1 -d -1 -p message -e 90 -c 2 -a 0 -i 2 -k MAC
h -t 0.883719847 -s 1 -d -1 -p message -e 90 -c 2 -a 0 -i 2 -k MAC
r -t 0.884440180 -s 0 -d -1 -p message -e 32 -c 2 -a 0 -i 2 -k MAC
r -t 0.884440180 -s 3 -d -1 -p message -e 32 -c 2 -a 0 -i 2 -k MAC
r -t 0.884440318 -s 2 -d -1 -p message -e 32 -c 2 -a 0 -i 2 -k MAC
r -t 0.884465180 -s 0 -d -1 -p message -e 32 -c 2 -a 0 -i 2 -k RTR
r -t 0.884465180 -s 3 -d -1 -p message -e 32 -c 2 -a 0 -i 2 -k RTR
r -t 0.884465318 -s 2 -d -1 -p message -e 32 -c 2 -a 0 -i 2 -k RTR
+ -t 1.000000000 -s 0 -d -1 -p tcp -e 40 -c 2 -a 0 -i 3 -k AGT 
- -t 1.000000000 -s 0 -d -1 -p tcp -e 40 -c 2 -a 0 -i 3 -k AGT
h -t 1.000000000 -s 0 -d -1 -p tcp -e 40 -c 2 -a 0 -i 3 -k AGT
+ -t 1.000000000 -s 0 -d 1 -p tcp -e 60 -c 2 -a 0 -i 3 -k RTR 
- -t 1.000000000 -s 0 -d 1 -p tcp -e 60 -c 2 -a 0 -i 3 -k RTR
h -t 1.000000000 -s 0 -d 1 -p tcp -e 60 -c 2 -a 0 -i 3 -k RTR
+ -t 1.000395000 -s 0 -d -1 -p ARP -e 86 -c 2 -a 0 -i 0 -k MAC 
- -t 1.000395000 -s 0 -d -1 -p ARP -e 86 -c 2 -a 0 -i 0 -k MAC
h -t 1.000395000 -s 0 -d -1 -p ARP -e 86 -c 2 -a 0 -i 0 -k MAC
r -t 1.001083333 -s 2 -d -1 -p ARP -e 28 -c 2 -a 0 -i 0 -k MAC
r -t 1.001083333 -s 1 -d -1 -p ARP -e 28 -c 2 -a 0 -i 0 -k MAC
r -t 1.001083471 -s 3 -d -1 -p ARP -e 28 -c 2 -a 0 -i 0 -k MAC
+ -t 1.001338333 -s 1 -d -1 -p RTS -e 44 -c 2 -a 0 -i 0 -k MAC 
- -t 1.001338333 -s 1 -d -1 -p RTS -e 44 -c 2 -a 0 -i 0 -k MAC
h -t 1.001338333 -s 1 -d -1 -p RTS -e 44 -c 2 -a 0 -i 0 -k MAC
r -t 1.001690667 -s 0 -d -1 -p RTS -e 44 -c 2 -a 0 -i 0 -k MAC
+ -t 1.001700667 -s 0 -d -1 -p CTS -e 38 -c 2 -a 0 -i 0 -k MAC 
- -t 1.001700667 -s 0 -d -1 -p CTS -e 38 -c 2 -a 0 -i 0 -k MAC
h -t 1.001700667 -s 0 -d -1 -p CTS -e 38 -c 2 -a 0 -i 0 -k MAC
r -t 1.002005000 -s 1 -d -1 -p CTS -e 38 -c 2 -a 0 -i 0 -k MAC
+ -t 1.002015000 -s 1 -d -1 -p ARP -e 86 -c 2 -a 0 -i 0 -k MAC 
- -t 1.002015000 -s 1 -d -1 -p ARP -e 86 -c 2 -a 0 -i 0 -k MAC
h -t 1.002015000 -s 1 -d -1 -p ARP -e 86 -c 2 -a 0 -i 0 -k MAC
r -t 1.002703333 -s 0 -d -1 -p ARP -e 28 -c 2 -a 0 -i 0 -k MAC
+ -t 1.002713333 -s 0 -d -1 -p ACK -e 38 -c 2 -a 0 -i 0 -k MAC 
- -t 1.002713333 -s 0 -d -1 -p ACK -e 38 -c 2 -a 0 -i 0 -k MAC
h -t 1.002713333 -s 0 -d -1 -p ACK -e 38 -c 2 -a 0 -i 0 -k MAC
r -t 1.003017667 -s 1 -d -1 -p ACK -e 38 -c 2 -a 0 -i 0 -k MAC
+ -t 1.003187333 -s 0 -d -1 -p RTS -e 44 -c 2 -a 0 -i 0 -k MAC 
- -t 1.003187333 -s 0 -d -1 -p RTS -e 44 -c 2 -a 0 -i 0 -k MAC
h -t 1.003187333 -s 0 -d -1 -p RTS -e 44 -c 2 -a 0 -i 0 -k MAC
r -t 1.003539667 -s 1 -d -1 -p RTS -e 44 -c 2 -a 0 -i 0 -k MAC
+ -t 1.003549667 -s 1 -d -1 -p CTS -e 38 -c 2 -a 0 -i 0 -k MAC 
- -t 1.003549667 -s 1 -d -1 -p CTS -e 38 -c 2 -a 0 -i 0 -k MAC
h -t 1.003549667 -s 1 -d -1 -p CTS -e 38 -c 2 -a 0 -i 0 -k MAC
r -t 1.003854000 -s 0 -d -1 -p CTS -e 38 -c 2 -a 0 -i 0 -k MAC
+ -t 1.003864000 -s 0 -d 1 -p tcp -e 118 -c 2 -a 0 -i 3 -k MAC 
- -t 1.003864000 -s 0 -d 1 -p tcp -e 118 -c 2 -a 0 -i 3 -k MAC
h -t 1.003864000 -s 0 -d 1 -p tcp -e 118 -c 2 -a 0 -i 3 -k MAC
r -t 1.004808333 -s 1 -d 1 -p tcp -e 60 -c 2 -a 0 -i 3 -k MAC
+ -t 1.004818333 -s 1 -d -1 -p ACK -e 38 -c 2 -a 0 -i 0 -k MAC 
- -t 1.004818333 -s 1 -d -1 -p ACK -e 38 -c 2 -a 0 -i 0 -k MAC
h -t 1.004818333 -s 1 -d -1 -p ACK -e 38 -c 2 -a 0 -i 0 -k MAC
r -t 1.004833333 -s 1 -d 1 -p tcp -e 60 -c 2 -a 0 -i 3 -k AGT
+ -t 1.004833333 -s 1 -d -1 -p ack -e 40 -c 2 -a 0 -i 4 -k AGT 
- -t 1.004833333 -s 1 -d -1 -p ack -e 40 -c 2 -a 0 -i 4 -k AGT
h -t 1.004833333 -s 1 -d -1 -p ack -e 40 -c 2 -a 0 -i 4 -k AGT
+ -t 1.004833333 -s 1 -d 0 -p ack -e 60 -c 2 -a 0 -i 4 -k RTR 
- -t 1.004833333 -s 1 -d 0 -p ack -e 60 -c 2 -a 0 -i 4 -k RTR
h -t 1.004833333 -s 1 -d 0 -p ack -e 60 -c 2 -a 0 -i 4 -k RTR
r -t 1.005122667 -s 0 -d -1 -p ACK -e 38 -c 2 -a 0 -i 0 -k MAC
+ -t 1.005292333 -s 1 -d -1 -p RTS -e 44 -c 2 -a 0 -i 0 -k MAC 
- -t 1.005292333 -s 1 -d -1 -p RTS -e 44 -c 2 -a 0 -i 0 -k MAC
h -t 1.005292333 -s 1 -d -1 -p RTS -e 44 -c 2 -a 0 -i 0 -k MAC
r -t 1.005644667 -s 0 -d -1 -p RTS -e 44 -c 2 -a 0 -i 0 -k MAC
+ -t 1.005654667 -s 0 -d -1 -p CTS -e 38 -c 2 -a 0 -i 0 -k MAC 
- -t 1.005654667 -s 0 -d -1 -p CTS -e 38 -c 2 -a 0 -i 0 -k MAC
h -t 1.005654667 -s 0 -d -1 -p CTS -e 38 -c 2 -a 0 -i 0 -k MAC
r -t 1.005959000 -s 1 -d -1 -p CTS -e 38 -c 2 -a 0 -i 0 -k MAC
+ -t 1.005969000 -s 1 -d 0 -p ack -e 118 -c 2 -a 0 -i 4 -k MAC 
- -t 1.005969000 -s 1 -d 0 -p ack -e 118 -c 2 -a 0 -i 4 -k MAC
h -t 1.005969000 -s 1 -d 0 -p ack -e 118 -c 2 -a 0 -i 4 -k MAC
r -t 1.006913333 -s 0 -d 0 -p ack -e 60 -c 2 -a 0 -i 4 -k MAC
+ -t 1.006923333 -s 0 -d -1 -p ACK -e 38 -c 2 -a 0 -i 0 -k MAC 
- -t 1.006923333 -s 0 -d -1 -p ACK -e 38 -c 2 -a 0 -i 0 -k MAC
h -t 1.006923333 -s 0 -d -1 -p ACK -e 38 -c 2 -a 0 -i 0 -k MAC
r -t 1.006938333 -s 0 -d 0 -p ack -e 60 -c 2 -a 0 -i 4 -k AGT
+ -t 1.006938333 -s 0 -d -1 -p tcp -e 1540 -c 2 -a 0 -i 5 -k AGT 
- -t 1.006938333 -s 0 -d -1 -p tcp -e 1540 -c 2 -a 0 -i 5 -k AGT
h -t 1.006938333 -s 0 -d -1 -p tcp -e 1540 -c 2 -a 0 -i 5 -k AGT
+ -t 1.006938333 -s 0 -d 1 -p tcp -e 1560 -c 2 -a 0 -i 5 -k RTR 
- -t 1.006938333 -s 0 -d 1 -p tcp -e 1560 -c 2 -a 0 -i 5 -k RTR
h -t 1.006938333 -s 0 -d 1 -p tcp -e 1560 -c 2 -a 0 -i 5 -k RTR
+ -t 1.006938333 -s 0 -d -1 -p tcp -e 1540 -c 2 -a 0 -i 6 -k AGT 
- -t 1.006938333 -s 0 -d -1 -p tcp -e 1540 -c 2 -a 0 -i 6 -k AGT
h -t 1.006938333 -s 0 -d -1 -p tcp -e 1540 -c 2 -a 0 -i 6 -k AGT
+ -t 1.006938333 -s 0 -d 1 -p tcp -e 1560 -c 2 -a 0 -i 6 -k RTR 
- -t 1.006938333 -s 0 -d 1 -p tcp -e 1560 -c 2 -a 0 -i 6 -k RTR
h -t 1.006938333 -s 0 -d 1 -p tcp -e 1560 -c 2 -a 0 -i 6 -k RTR
r -t 1.007227667 -s 1 -d -1 -p ACK -e 38 -c 2 -a 0 -i 0 -k MAC
+ -t 1.007517333 -s 0 -d -1 -p RTS -e 44 -c 2 -a 0 -i 0 -k MAC 
- -t 1.007517333 -s 0 -d -1 -p RTS -e 44 -c 2 -a 0 -i 0 -k MAC
h -t 1.007517333 -s 0 -d -1 -p RTS -e 44 -c 2 -a 0 -i 0 -k MAC
r -t 1.007869667 -s 1 -d -1 -p RTS -e 44 -c 2 -a 0 -i 0 -k MAC
+ -t 1.007879667 -s 1 -d -1 -p CTS -e 38 -c 2 -a 0 -i 0 -k MAC 
- -t 1.007879667 -s 1 -d -1 -p CTS -e 38 -c 2 -a 0 -i 0 -k MAC
h -t 1.007879667 -s 1 -d -1 -p CTS -e 38 -c 2 -a 0 -i 0 -k MAC
r -t 1.008184000 -s 0 -d -1 -p CTS -e 38 -c 2 -a 0 -i 0 -k MAC
+ -t 1.008194000 -s 0 -d 1 -p tcp -e 1618 -c 2 -a 0 -i 5 -k MAC 
- -t 1.008194000 -s 0 -d 1 -p tcp -e 1618 -c 2 -a 0 -i 5 -k MAC
h -t 1.008194000 -s 0 -d 1 -p tcp -e 1618 -c 2 -a 0 -i 5 -k MAC
r -t 1.021138333 -s 1 -d 1 -p tcp -e 1560 -c 2 -a 0 -i 5 -k MAC
+ -t 1.021148333 -s 1 -d -1 -p ACK -e 38 -c 2 -a 0 -i 0 -k MAC 
- -t 1.021148333 -s 1 -d -1 -p ACK -e 38 -c 2 -a 0 -i 0 -k MAC
h -t 1.021148333 -s 1 -d -1 -p ACK -e 38 -c 2 -a 0 -i 0 -k MAC
r -t 1.021163333 -s 1 -d 1 -p tcp -e 1560 -c 2 -a 0 -i 5 -k AGT
+ -t 1.021163333 -s 1 -d -1 -p ack -e 40 -c 2 -a 0 -i 7 -k AGT 
- -t 1.021163333 -s 1 -d -1 -p ack -e 40 -c 2 -a 0 -i 7 -k AGT
h -t 1.021163333 -s 1 -d -1 -p ack -e 40 -c 2 -a 0 -i 7 -k AGT
+ -t 1.021163333 -s 1 -d 0 -p ack -e 60 -c 2 -a 0 -i 7 -k RTR 
- -t 1.021163333 -s 1 -d 0 -p ack -e 60 -c 2 -a 0 -i 7 -k RTR
h -t 1.021163333 -s 1 -d 0 -p ack -e 60 -c 2 -a 0 -i 7 -k RTR
r -t 1.021452667 -s 0 -d -1 -p ACK -e 38 -c 2 -a 0 -i 0 -k MAC
+ -t 1.021682667 -s 0 -d -1 -p RTS -e 44 -c 2 -a 0 -i 0 -k MAC 
- -t 1.021682667 -s 0 -d -1 -p RTS -e 44 -c 2 -a 0 -i 0 -k MAC
h -t 1.021682667 -s 0 -d -1 -p RTS -e 44 -c 2 -a 0 -i 0 -k MAC
r -t 1.022035000 -s 1 -d -1 -p RTS -e 44 -c 2 -a 0 -i 0 -k MAC
+ -t 1.022045000 -s 1 -d -1 -p CTS -e 38 -c 2 -a 0 -i 0 -k MAC 
- -t 1.022045000 -s 1 -d -1 -p CTS -e 38 -c 2 -a 0 -i 0 -k MAC
h -t 1.022045000 -s 1 -d -1 -p CTS -e 38 -c 2 -a 0 -i 0 -k MAC
r -t 1.022349333 -s 0 -d -1 -p CTS -e 38 -c 2 -a 0 -i 0 -k MAC
+ -t 1.022359333 -s 0 -d 1 -p tcp -e 1618 -c 2 -a 0 -i 6 -k MAC 
- -t 1.022359333 -s 0 -d 1 -p tcp -e 1618 -c 2 -a 0 -i 6 -k MAC
h -t 1.022359333 -s 0 -d 1 -p tcp -e 1618 -c 2 -a 0 -i 6 -k MAC
r -t 1.035303667 -s 1 -d 1 -p tcp -e 1560 -c 2 -a 0 -i 6 -k MAC
+ -t 1.035313667 -s 1 -d -1 -p ACK -e 38 -c 2 -a 0 -i 0 -k MAC 
- -t 1.035313667 -s 1 -d -1 -p ACK -e 38 -c 2 -a 0 -i 0 -k MAC
h -t 1.035313667 -s 1 -d -1 -p ACK -e 38 -c 2 -a 0 -i 0 -k MAC
r -t 1.035328667 -s 1 -d 1 -p tcp -e 1560 -c 2 -a 0 -i 6 -k AGT
+ -t 1.035328667 -s 1 -d -1 -p ack -e 40 -c 2 -a 0 -i 8 -k AGT 
- -t 1.035328667 -s 1 -d -1 -p ack -e 40 -c 2 -a 0 -i 8 -k AGT
h -t 1.035328667 -s 1 -d -1 -p ack -e 40 -c 2 -a 0 -i 8 -k AGT
+ -t 1.035328667 -s 1 -d 0 -p ack -e 60 -c 2 -a 0 -i 8 -k RTR 
- -t 1.035328667 -s 1 -d 0 -p ack -e 60 -c 2 -a 0 -i 8 -k RTR
h -t 1.035328667 -s 1 -d 0 -p ack -e 60 -c 2 -a 0 -i 8 -k RTR
r -t 1.035618000 -s 0 -d -1 -p ACK -e 38 -c 2 -a 0 -i 0 -k MAC
+ -t 1.035707667 -s 1 -d -1 -p RTS -e 44 -c 2 -a 0 -i 0 -k MAC 
- -t 1.035707667 -s 1 -d -1 -p RTS -e 44 -c 2 -a 0 -i 0 -k MAC
h -t 1.035707667 -s 1 -d -1 -p RTS -e 44 -c 2 -a 0 -i 0 -k MAC
r -t 1.036060000 -s 0 -d -1 -p RTS -e 44 -c 2 -a 0 -i 0 -k MAC
+ -t 1.036070000 -s 0 -d -1 -p CTS -e 38 -c 2 -a 0 -i 0 -k MAC 
- -t 1.036070000 -s 0 -d -1 -p CTS -e 38 -c 2 -a 0 -i 0 -k MAC
h -t 1.036070000 -s 0 -d -1 -p CTS -e 38 -c 2 -a 0 -i 0 -k MAC
r -t 1.036374333 -s 1 -d -1 -p CTS -e 38 -c 2 -a 0 -i 0 -k MAC
+ -t 1.036384333 -s 1 -d 0 -p ack -e 118 -c 2 -a 0 -i 7 -k MAC 
- -t 1.036384333 -s 1 -d 0 -p ack -e 118 -c 2 -a 0 -i 7 -k MAC
h -t 1.036384333 -s 1 -d 0 -p ack -e 118 -c 2 -a 0 -i 7 -k MAC
r -t 1.037328667 -s 0 -d 0 -p ack -e 60 -c 2 -a 0 -i 7 -k MAC
+ -t 1.037338667 -s 0 -d -1 -p ACK -e 38 -c 2 -a 0 -i 0 -k MAC 
- -t 1.037338667 -s 0 -d -1 -p ACK -e 38 -c 2 -a 0 -i 0 -k MAC
h -t 1.037338667 -s 0 -d -1 -p ACK -e 38 -c 2 -a 0 -i 0 -k MAC
r -t 1.037353667 -s 0 -d 0 -p ack -e 60 -c 2 -a 0 -i 7 -k AGT
+ -t 1.037353667 -s 0 -d -1 -p tcp -e 1540 -c 2 -a 0 -i 9 -k AGT 
- -t 1.037353667 -s 0 -d -1 -p tcp -e 1540 -c 2 -a 0 -i 9 -k AGT
h -t 1.037353667 -s 0 -d -1 -p tcp -e 1540 -c 2 -a 0 -i 9 -k AGT
+ -t 1.037353667 -s 0 -d 1 -p tcp -e 1560 -c 2 -a 0 -i 9 -k RTR 
- -t 1.037353667 -s 0 -d 1 -p tcp -e 1560 -c 2 -a 0 -i 9 -k RTR
h -t 1.037353667 -s 0 -d 1 -p tcp -e 1560 -c 2 -a 0 -i 9 -k RTR
+ -t 1.037353667 -s 0 -d -1 -p tcp -e 1540 -c 2 -a 0 -i 10 -k AGT 
- -t 1.037353667 -s 0 -d -1 -p tcp -e 1540 -c 2 -a 0 -i 10 -k AGT
h -t 1.037353667 -s 0 -d -1 -p tcp -e 1540 -c 2 -a 0 -i 10 -k AGT
+ -t 1.037353667 -s 0 -d 1 -p tcp -e 1560 -c 2 -a 0 -i 10 -k RTR 
- -t 1.037353667 -s 0 -d 1 -p tcp -e 1560 -c 2 -a 0 -i 10 -k RTR
h -t 1.037353667 -s 0 -d 1 -p tcp -e 1560 -c 2 -a 0 -i 10 -k RTR
r -t 1.037643000 -s 1 -d -1 -p ACK -e 38 -c 2 -a 0 -i 0 -k MAC
+ -t 1.038093000 -s 1 -d -1 -p RTS -e 44 -c 2 -a 0 -i 0 -k MAC 
- -t 1.038093000 -s 1 -d -1 -p RTS -e 44 -c 2 -a 0 -i 0 -k MAC
h -t 1.038093000 -s 1 -d -1 -p RTS -e 44 -c 2 -a 0 -i 0 -k MAC
r -t 1.038445333 -s 0 -d -1 -p RTS -e 44 -c 2 -a 0 -i 0 -k MAC
+ -t 1.038455333 -s 0 -d -1 -p CTS -e 38 -c 2 -a 0 -i 0 -k MAC 
- -t 1.038455333 -s 0 -d -1 -p CTS -e 38 -c 2 -a 0 -i 0 -k MAC
h -t 1.038455333 -s 0 -d -1 -p CTS -e 38 -c 2 -a 0 -i 0 -k MAC
r -t 1.038759667 -s 1 -d -1 -p CTS -e 38 -c 2 -a 0 -i 0 -k MAC
+ -t 1.038769667 -s 1 -d 0 -p ack -e 118 -c 2 -a 0 -i 8 -k MAC 
- -t 1.038769667 -s 1 -d 0 -p ack -e 118 -c 2 -a 0 -i 8 -k MAC
h -t 1.038769667 -s 1 -d 0 -p ack -e 118 -c 2 -a 0 -i 8 -k MAC
r -t 1.039714000 -s 0 -d 0 -p ack -e 60 -c 2 -a 0 -i 8 -k MAC
+ -t 1.039724000 -s 0 -d -1 -p ACK -e 38 -c 2 -a 0 -i 0 -k MAC 
- -t 1.039724000 -s 0 -d -1 -p ACK -e 38 -c 2 -a 0 -i 0 -k MAC
h -t 1.039724000 -s 0 -d -1 -p ACK -e 38 -c 2 -a 0 -i 0 -k MAC
r -t 1.039739000 -s 0 -d 0 -p ack -e 60 -c 2 -a 0 -i 8 -k AGT
+ -t 1.039739000 -s 0 -d -1 -p tcp -e 1540 -c 2 -a 0 -i 11 -k AGT 
- -t 1.039739000 -s 0 -d -1 -p tcp -e 1540 -c 2 -a 0 -i 11 -k AGT
h -t 1.039739000 -s 0 -d -1 -p tcp -e 1540 -c 2 -a 0 -i 11 -k AGT
+ -t 1.039739000 -s 0 -d 1 -p tcp -e 1560 -c 2 -a 0 -i 11 -k RTR 
- -t 1.039739000 -s 0 -d 1 -p tcp -e 1560 -c 2 -a 0 -i 11 -k RTR
h -t 1.039739000 -s 0 -d 1 -p tcp -e 1560 -c 2 -a 0 -i 11 -k RTR
+ -t 1.039739000 -s 0 -d -1 -p tcp -e 1540 -c 2 -a 0 -i 12 -k AGT 
- -t 1.039739000 -s 0 -d -1 -p tcp -e 1540 -c 2 -a 0 -i 12 -k AGT
h -t 1.039739000 -s 0 -d -1 -p tcp -e 1540 -c 2 -a 0 -i 12 -k AGT
+ -t 1.039739000 -s 0 -d 1 -p tcp -e 1560 -c 2 -a 0 -i 12 -k RTR 
- -t 1.039739000 -s 0 -d 1 -p tcp -e 1560 -c 2 -a 0 -i 12 -k RTR
h -t 1.039739000 -s 0 -d 1 -p tcp -e 1560 -c 2 -a 0 -i 12 -k RTR
r -t 1.040028333 -s 1 -d -1 -p ACK -e 38 -c 2 -a 0 -i 0 -k MAC
+ -t 1.040238000 -s 0 -d -1 -p RTS -e 44 -c 2 -a 0 -i 0 -k MAC 
- -t 1.040238000 -s 0 -d -1 -p RTS -e 44 -c 2 -a 0 -i 0 -k MAC
h -t 1.040238000 -s 0 -d -1 -p RTS -e 44 -c 2 -a 0 -i 0 -k MAC
r -t 1.040590333 -s 1 -d -1 -p RTS -e 44 -c 2 -a 0 -i 0 -k MAC
+ -t 1.040600333 -s 1 -d -1 -p CTS -e 38 -c 2 -a 0 -i 0 -k MAC 
- -t 1.040600333 -s 1 -d -1 -p CTS -e 38 -c 2 -a 0 -i 0 -k MAC
h -t 1.040600333 -s 1 -d -1 -p CTS -e 38 -c 2 -a 0 -i 0 -k MAC
r -t 1.040904667 -s 0 -d -1 -p CTS -e 38 -c 2 -a 0 -i 0 -k MAC
+ -t 1.040914667 -s 0 -d 1 -p tcp -e 1618 -c 2 -a 0 -i 9 -k MAC 
- -t 1.040914667 -s 0 -d 1 -p tcp -e 1618 -c 2 -a 0 -i 9 -k MAC
h -t 1.040914667 -s 0 -d 1 -p tcp -e 1618 -c 2 -a 0 -i 9 -k MAC
r -t 1.053859000 -s 1 -d 1 -p tcp -e 1560 -c 2 -a 0 -i 9 -k MAC
+ -t 1.053869000 -s 1 -d -1 -p ACK -e 38 -c 2 -a 0 -i 0 -k MAC 
- -t 1.053869000 -s 1 -d -1 -p ACK -e 38 -c 2 -a 0 -i 0 -k MAC
h -t 1.053869000 -s 1 -d -1 -p ACK -e 38 -c 2 -a 0 -i 0 -k MAC
r -t 1.053884000 -s 1 -d 1 -p tcp -e 1560 -c 2 -a 0 -i 9 -k AGT
+ -t 1.053884000 -s 1 -d -1 -p ack -e 40 -c 2 -a 0 -i 13 -k AGT 
- -t 1.053884000 -s 1 -d -1 -p ack -e 40 -c 2 -a 0 -i 13 -k AGT
h -t 1.053884000 -s 1 -d -1 -p ack -e 40 -c 2 -a 0 -i 13 -k AGT
+ -t 1.053884000 -s 1 -d 0 -p ack -e 60 -c 2 -a 0 -i 13 -k RTR 
- -t 1.053884000 -s 1 -d 0 -p ack -e 60 -c 2 -a 0 -i 13 -k RTR
h -t 1.053884000 -s 1 -d 0 -p ack -e 60 -c 2 -a 0 -i 13 -k RTR
r -t 1.054173333 -s 0 -d -1 -p ACK -e 38 -c 2 -a 0 -i 0 -k MAC
+ -t 1.054583333 -s 0 -d -1 -p RTS -e 44 -c 2 -a 0 -i 0 -k MAC 
- -t 1.054583333 -s 0 -d -1 -p RTS -e 44 -c 2 -a 0 -i 0 -k MAC
h -t 1.054583333 -s 0 -d -1 -p RTS -e 44 -c 2 -a 0 -i 0 -k MAC
r -t 1.054935667 -s 1 -d -1 -p RTS -e 44 -c 2 -a 0 -i 0 -k MAC
+ -t 1.054945667 -s 1 -d -1 -p CTS -e 38 -c 2 -a 0 -i 0 -k MAC 
- -t 1.054945667 -s 1 -d -1 -p CTS -e 38 -c 2 -a 0 -i 0 -k MAC
h -t 1.054945667 -s 1 -d -1 -p CTS -e 38 -c 2 -a 0 -i 0 -k MAC
r -t 1.055250000 -s 0 -d -1 -p CTS -e 38 -c 2 -a 0 -i 0 -k MAC
+ -t 1.055260000 -s 0 -d 1 -p tcp -e 1618 -c 2 -a 0 -i 10 -k MAC 
- -t 1.055260000 -s 0 -d 1 -p tcp -e 1618 -c 2 -a 0 -i 10 -k MAC
h -t 1.055260000 -s 0 -d 1 -p tcp -e 1618 -c 2 -a 0 -i 10 -k MAC
r -t 1.068204333 -s 1 -d 1 -p tcp -e 1560 -c 2 -a 0 -i 10 -k MAC
+ -t 1.068214333 -s 1 -d -1 -p ACK -e 38 -c 2 -a 0 -i 0 -k MAC 
- -t 1.068214333 -s 1 -d -1 -p ACK -e 38 -c 2 -a 0 -i 0 -k MAC
h -t 1.068214333 -s 1 -d -1 -p ACK -e 38 -c 2 -a 0 -i 0 -k MAC
r -t 1.068229333 -s 1 -d 1 -p tcp -e 1560 -c 2 -a 0 -i 10 -k AGT
+ -t 1.068229333 -s 1 -d -1 -p ack -e 40 -c 2 -a 0 -i 14 -k AGT 
- -t 1.068229333 -s 1 -d -1 -p ack -e 40 -c 2 -a 0 -i 14 -k AGT
h -t 1.068229333 -s 1 -d -1 -p ack -e 40 -c 2 -a 0 -i 14 -k AGT
+ -t 1.068229333 -s 1 -d 0 -p ack -e 60 -c 2 -a 0 -i 14 -k RTR 
- -t 1.068229333 -s 1 -d 0 -p ack -e 60 -c 2 -a 0 -i 14 -k RTR
h -t 1.068229333 -s 1 -d 0 -p ack -e 60 -c 2 -a 0 -i 14 -k RTR
r -t 1.068518667 -s 0 -d -1 -p ACK -e 38 -c 2 -a 0 -i 0 -k MAC
+ -t 1.068608333 -s 1 -d -1 -p RTS -e 44 -c 2 -a 0 -i 0 -k MAC 
- -t 1.068608333 -s 1 -d -1 -p RTS -e 44 -c 2 -a 0 -i 0 -k MAC
h -t 1.068608333 -s 1 -d -1 -p RTS -e 44 -c 2 -a 0 -i 0 -k MAC
+ -t 1.068608667 -s 0 -d -1 -p RTS -e 44 -c 2 -a 0 -i 0 -k MAC 
- -t 1.068608667 -s 0 -d -1 -p RTS -e 44 -c 2 -a 0 -i 0 -k MAC
h -t 1.068608667 -s 0 -d -1 -p RTS -e 44 -c 2 -a 0 -i 0 -k MAC
+ -t 1.070074667 -s 0 -d -1 -p RTS -e 44 -c 2 -a 0 -i 0 -k MAC 
- -t 1.070074667 -s 0 -d -1 -p RTS -e 44 -c 2 -a 0 -i 0 -k MAC
h -t 1.070074667 -s 0 -d -1 -p RTS -e 44 -c 2 -a 0 -i 0 -k MAC
r -t 1.070427000 -s 1 -d -1 -p RTS -e 44 -c 2 -a 0 -i 0 -k MAC
+ -t 1.070437000 -s 1 -d -1 -p CTS -e 38 -c 2 -a 0 -i 0 -k MAC 
- -t 1.070437000 -s 1 -d -1 -p CTS -e 38 -c 2 -a 0 -i 0 -k MAC
h -t 1.070437000 -s 1 -d -1 -p CTS -e 38 -c 2 -a 0 -i 0 -k MAC
r -t 1.070741333 -s 0 -d -1 -p CTS -e 38 -c 2 -a 0 -i 0 -k MAC
+ -t 1.070751333 -s 0 -d 1 -p tcp -e 1618 -c 2 -a 0 -i 11 -k MAC 
- -t 1.070751333 -s 0 -d 1 -p tcp -e 1618 -c 2 -a 0 -i 11 -k MAC
h -t 1.070751333 -s 0 -d 1 -p tcp -e 1618 -c 2 -a 0 -i 11 -k MAC
r -t 1.083695667 -s 1 -d 1 -p tcp -e 1560 -c 2 -a 0 -i 11 -k MAC
+ -t 1.083705667 -s 1 -d -1 -p ACK -e 38 -c 2 -a 0 -i 0 -k MAC 
- -t 1.083705667 -s 1 -d -1 -p ACK -e 38 -c 2 -a 0 -i 0 -k MAC
h -t 1.083705667 -s 1 -d -1 -p ACK -e 38 -c 2 -a 0 -i 0 -k MAC
r -t 1.083720667 -s 1 -d 1 -p tcp -e 1560 -c 2 -a 0 -i 11 -k AGT
+ -t 1.083720667 -s 1 -d -1 -p ack -e 40 -c 2 -a 0 -i 15 -k AGT 
- -t 1.083720667 -s 1 -d -1 -p ack -e 40 -c 2 -a 0 -i 15 -k AGT
h -t 1.083720667 -s 1 -d -1 -p ack -e 40 -c 2 -a 0 -i 15 -k AGT
+ -t 1.083720667 -s 1 -d 0 -p ack -e 60 -c 2 -a 0 -i 15 -k RTR 
- -t 1.083720667 -s 1 -d 0 -p ack -e 60 -c 2 -a 0 -i 15 -k RTR
h -t 1.083720667 -s 1 -d 0 -p ack -e 60 -c 2 -a 0 -i 15 -k RTR
r -t 1.084010000 -s 0 -d -1 -p ACK -e 38 -c 2 -a 0 -i 0 -k MAC
+ -t 1.084200000 -s 0 -d -1 -p RTS -e 44 -c 2 -a 0 -i 0 -k MAC 
- -t 1.084200000 -s 0 -d -1 -p RTS -e 44 -c 2 -a 0 -i 0 -k MAC
h -t 1.084200000 -s 0 -d -1 -p RTS -e 44 -c 2 -a 0 -i 0 -k MAC
r -t 1.084552333 -s 1 -d -1 -p RTS -e 44 -c 2 -a 0 -i 0 -k MAC
+ -t 1.084562333 -s 1 -d -1 -p CTS -e 38 -c 2 -a 0 -i 0 -k MAC 
- -t 1.084562333 -s 1 -d -1 -p CTS -e 38 -c 2 -a 0 -i 0 -k MAC
h -t 1.084562333 -s 1 -d -1 -p CTS -e 38 -c 2 -a 0 -i 0 -k MAC
r -t 1.084866667 -s 0 -d -1 -p CTS -e 38 -c 2 -a 0 -i 0 -k MAC
+ -t 1.084876667 -s 0 -d 1 -p tcp -e 1618 -c 2 -a 0 -i 12 -k MAC 
- -t 1.084876667 -s 0 -d 1 -p tcp -e 1618 -c 2 -a 0 -i 12 -k MAC
h -t 1.084876667 -s 0 -d 1 -p tcp -e 1618 -c 2 -a 0 -i 12 -k MAC
r -t 1.097821000 -s 1 -d 1 -p tcp -e 1560 -c 2 -a 0 -i 12 -k MAC
+ -t 1.097831000 -s 1 -d -1 -p ACK -e 38 -c 2 -a 0 -i 0 -k MAC 
- -t 1.097831000 -s 1 -d -1 -p ACK -e 38 -c 2 -a 0 -i 0 -k MAC
h -t 1.097831000 -s 1 -d -1 -p ACK -e 38 -c 2 -a 0 -i 0 -k MAC
r -t 1.097846000 -s 1 -d 1 -p tcp -e 1560 -c 2 -a 0 -i 12 -k AGT
+ -t 1.097846000 -s 1 -d -1 -p ack -e 40 -c 2 -a 0 -i 16 -k AGT 
- -t 1.097846000 -s 1 -d -1 -p ack -e 40 -c 2 -a 0 -i 16 -k AGT
h -t 1.097846000 -s 1 -d -1 -p ack -e 40 -c 2 -a 0 -i 16 -k AGT
+ -t 1.097846000 -s 1 -d 0 -p ack -e 60 -c 2 -a 0 -i 16 -k RTR 
- -t 1.097846000 -s 1 -d 0 -p ack -e 60 -c 2 -a 0 -i 16 -k RTR
h -t 1.097846000 -s 1 -d 0 -p ack -e 60 -c 2 -a 0 -i 16 -k RTR
r -t 1.098135333 -s 0 -d -1 -p ACK -e 38 -c 2 -a 0 -i 0 -k MAC
+ -t 1.098485000 -s 1 -d -1 -p RTS -e 44 -c 2 -a 0 -i 0 -k MAC 
- -t 1.098485000 -s 1 -d -1 -p RTS -e 44 -c 2 -a 0 -i 0 -k MAC
h -t 1.098485000 -s 1 -d -1 -p RTS -e 44 -c 2 -a 0 -i 0 -k MAC
r -t 1.098837333 -s 0 -d -1 -p RTS -e 44 -c 2 -a 0 -i 0 -k MAC
+ -t 1.098847333 -s 0 -d -1 -p CTS -e 38 -c 2 -a 0 -i 0 -k MAC 
- -t 1.098847333 -s 0 -d -1 -p CTS -e 38 -c 2 -a 0 -i 0 -k MAC
h -t 1.098847333 -s 0 -d -1 -p CTS -e 38 -c 2 -a 0 -i 0 -k MAC
r -t 1.099151667 -s 1 -d -1 -p CTS -e 38 -c 2 -a 0 -i 0 -k MAC
+ -t 1.099161667 -s 1 -d 0 -p ack -e 118 -c 2 -a 0 -i 13 -k MAC 
- -t 1.099161667 -s 1 -d 0 -p ack -e 118 -c 2 -a 0 -i 13 -k MAC
h -t 1.099161667 -s 1 -d 0 -p ack -e 118 -c 2 -a 0 -i 13 -k MAC
r -t 1.100106000 -s 0 -d 0 -p ack -e 60 -c 2 -a 0 -i 13 -k MAC
+ -t 1.100116000 -s 0 -d -1 -p ACK -e 38 -c 2 -a 0 -i 0 -k MAC 
- -t 1.100116000 -s 0 -d -1 -p ACK -e 38 -c 2 -a 0 -i 0 -k MAC
h -t 1.100116000 -s 0 -d -1 -p ACK -e 38 -c 2 -a 0 -i 0 -k MAC
r -t 1.100131000 -s 0 -d 0 -p ack -e 60 -c 2 -a 0 -i 13 -k AGT
+ -t 1.100131000 -s 0 -d -1 -p tcp -e 1540 -c 2 -a 0 -i 17 -k AGT 
- -t 1.100131000 -s 0 -d -1 -p tcp -e 1540 -c 2 -a 0 -i 17 -k AGT
h -t 1.100131000 -s 0 -d -1 -p tcp -e 1540 -c 2 -a 0 -i 17 -k AGT
+ -t 1.100131000 -s 0 -d 1 -p tcp -e 1560 -c 2 -a 0 -i 17 -k RTR 
- -t 1.100131000 -s 0 -d 1 -p tcp -e 1560 -c 2 -a 0 -i 17 -k RTR
h -t 1.100131000 -s 0 -d 1 -p tcp -e 1560 -c 2 -a 0 -i 17 -k RTR
+ -t 1.100131000 -s 0 -d -1 -p tcp -e 1540 -c 2 -a 0 -i 18 -k AGT 
- -t 1.100131000 -s 0 -d -1 -p tcp -e 1540 -c 2 -a 0 -i 18 -k AGT
h -t 1.100131000 -s 0 -d -1 -p tcp -e 1540 -c 2 -a 0 -i 18 -k AGT
+ -t 1.100131000 -s 0 -d 1 -p tcp -e 1560 -c 2 -a 0 -i 18 -k RTR 
- -t 1.100131000 -s 0 -d 1 -p tcp -e 1560 -c 2 -a 0 -i 18 -k RTR
h -t 1.100131000 -s 0 -d 1 -p tcp -e 1560 -c 2 -a 0 -i 18 -k RTR
r -t 1.100420333 -s 1 -d -1 -p ACK -e 38 -c 2 -a 0 -i 0 -k MAC
+ -t 1.100670333 -s 1 -d -1 -p RTS -e 44 -c 2 -a 0 -i 0 -k MAC 
- -t 1.100670333 -s 1 -d -1 -p RTS -e 44 -c 2 -a 0 -i 0 -k MAC
h -t 1.100670333 -s 1 -d -1 -p RTS -e 44 -c 2 -a 0 -i 0 -k MAC
r -t 1.101022667 -s 0 -d -1 -p RTS -e 44 -c 2 -a 0 -i 0 -k MAC
+ -t 1.101032667 -s 0 -d -1 -p CTS -e 38 -c 2 -a 0 -i 0 -k MAC 
- -t 1.101032667 -s 0 -d -1 -p CTS -e 38 -c 2 -a 0 -i 0 -k MAC
h -t 1.101032667 -s 0 -d -1 -p CTS -e 38 -c 2 -a 0 -i 0 -k MAC
r -t 1.101337000 -s 1 -d -1 -p CTS -e 38 -c 2 -a 0 -i 0 -k MAC
+ -t 1.101347000 -s 1 -d 0 -p ack -e 118 -c 2 -a 0 -i 14 -k MAC 
- -t 1.101347000 -s 1 -d 0 -p ack -e 118 -c 2 -a 0 -i 14 -k MAC
h -t 1.101347000 -s 1 -d 0 -p ack -e 118 -c 2 -a 0 -i 14 -k MAC
r -t 1.102291333 -s 0 -d 0 -p ack -e 60 -c 2 -a 0 -i 14 -k MAC
+ -t 1.102301333 -s 0 -d -1 -p ACK -e 38 -c 2 -a 0 -i 0 -k MAC 
- -t 1.102301333 -s 0 -d -1 -p ACK -e 38 -c 2 -a 0 -i 0 -k MAC
h -t 1.102301333 -s 0 -d -1 -p ACK -e 38 -c 2 -a 0 -i 0 -k MAC
r -t 1.102316333 -s 0 -d 0 -p ack -e 60 -c 2 -a 0 -i 14 -k AGT
+ -t 1.102316333 -s 0 -d -1 -p tcp -e 1540 -c 2 -a 0 -i 19 -k AGT 
- -t 1.102316333 -s 0 -d -1 -p tcp -e 1540 -c 2 -a 0 -i 19 -k AGT
h -t 1.102316333 -s 0 -d -1 -p tcp -e 1540 -c 2 -a 0 -i 19 -k AGT
+ -t 1.102316333 -s 0 -d 1 -p tcp -e 1560 -c 2 -a 0 -i 19 -k RTR 
- -t 1.102316333 -s 0 -d 1 -p tcp -e 1560 -c 2 -a 0 -i 19 -k RTR
h -t 1.102316333 -s 0 -d 1 -p tcp -e 1560 -c 2 -a 0 -i 19 -k RTR
+ -t 1.102316333 -s 0 -d -1 -p tcp -e 1540 -c 2 -a 0 -i 20 -k AGT 
- -t 1.102316333 -s 0 -d -1 -p tcp -e 1540 -c 2 -a 0 -i 20 -k AGT
h -t 1.102316333 -s 0 -d -1 -p tcp -e 1540 -c 2 -a 0 -i 20 -k AGT
+ -t 1.102316333 -s 0 -d 1 -p tcp -e 1560 -c 2 -a 0 -i 20 -k RTR 
- -t 1.102316333 -s 0 -d 1 -p tcp -e 1560 -c 2 -a 0 -i 20 -k RTR
h -t 1.102316333 -s 0 -d 1 -p tcp -e 1560 -c 2 -a 0 -i 20 -k RTR
r -t 1.102605667 -s 1 -d -1 -p ACK -e 38 -c 2 -a 0 -i 0 -k MAC
+ -t 1.102735333 -s 0 -d -1 -p RTS -e 44 -c 2 -a 0 -i 0 -k MAC 
- -t 1.102735333 -s 0 -d -1 -p RTS -e 44 -c 2 -a 0 -i 0 -k MAC
h -t 1.102735333 -s 0 -d -1 -p RTS -e 44 -c 2 -a 0 -i 0 -k MAC
r -t 1.103087667 -s 1 -d -1 -p RTS -e 44 -c 2 -a 0 -i 0 -k MAC
+ -t 1.103097667 -s 1 -d -1 -p CTS -e 38 -c 2 -a 0 -i 0 -k MAC 
- -t 1.103097667 -s 1 -d -1 -p CTS -e 38 -c 2 -a 0 -i 0 -k MAC
h -t 1.103097667 -s 1 -d -1 -p CTS -e 38 -c 2 -a 0 -i 0 -k MAC
r -t 1.103402000 -s 0 -d -1 -p CTS -e 38 -c 2 -a 0 -i 0 -k MAC
+ -t 1.103412000 -s 0 -d 1 -p tcp -e 1618 -c 2 -a 0 -i 17 -k MAC 
- -t 1.103412000 -s 0 -d 1 -p tcp -e 1618 -c 2 -a 0 -i 17 -k MAC
h -t 1.103412000 -s 0 -d 1 -p tcp -e 1618 -c 2 -a 0 -i 17 -k MAC
r -t 1.116356333 -s 1 -d 1 -p tcp -e 1560 -c 2 -a 0 -i 17 -k MAC
+ -t 1.116366333 -s 1 -d -1 -p ACK -e 38 -c 2 -a 0 -i 0 -k MAC 
- -t 1.116366333 -s 1 -d -1 -p ACK -e 38 -c 2 -a 0 -i 0 -k MAC
h -t 1.116366333 -s 1 -d -1 -p ACK -e 38 -c 2 -a 0 -i 0 -k MAC
r -t 1.116381333 -s 1 -d 1 -p tcp -e 1560 -c 2 -a 0 -i 17 -k AGT
+ -t 1.116381333 -s 1 -d -1 -p ack -e 40 -c 2 -a 0 -i 21 -k AGT 
- -t 1.116381333 -s 1 -d -1 -p ack -e 40 -c 2 -a 0 -i 21 -k AGT
h -t 1.116381333 -s 1 -d -1 -p ack -e 40 -c 2 -a 0 -i 21 -k AGT
+ -t 1.116381333 -s 1 -d 0 -p ack -e 60 -c 2 -a 0 -i 21 -k RTR 
- -t 1.116381333 -s 1 -d 0 -p ack -e 60 -c 2 -a 0 -i 21 -k RTR
h -t 1.116381333 -s 1 -d 0 -p ack -e 60 -c 2 -a 0 -i 21 -k RTR
r -t 1.116670667 -s 0 -d -1 -p ACK -e 38 -c 2 -a 0 -i 0 -k MAC
+ -t 1.116760333 -s 1 -d -1 -p RTS -e 44 -c 2 -a 0 -i 0 -k MAC 
- -t 1.116760333 -s 1 -d -1 -p RTS -e 44 -c 2 -a 0 -i 0 -k MAC
h -t 1.116760333 -s 1 -d -1 -p RTS -e 44 -c 2 -a 0 -i 0 -k MAC
r -t 1.117112667 -s 0 -d -1 -p RTS -e 44 -c 2 -a 0 -i 0 -k MAC
+ -t 1.117122667 -s 0 -d -1 -p CTS -e 38 -c 2 -a 0 -i 0 -k MAC 
- -t 1.117122667 -s 0 -d -1 -p CTS -e 38 -c 2 -a 0 -i 0 -k MAC
h -t 1.117122667 -s 0 -d -1 -p CTS -e 38 -c 2 -a 0 -i 0 -k MAC
r -t 1.117427000 -s 1 -d -1 -p CTS -e 38 -c 2 -a 0 -i 0 -k MAC
+ -t 1.117437000 -s 1 -d 0 -p ack -e 118 -c 2 -a 0 -i 15 -k MAC 
- -t 1.117437000 -s 1 -d 0 -p ack -e 118 -c 2 -a 0 -i 15 -k MAC
h -t 1.117437000 -s 1 -d 0 -p ack -e 118 -c 2 -a 0 -i 15 -k MAC
r -t 1.118381333 -s 0 -d 0 -p ack -e 60 -c 2 -a 0 -i 15 -k MAC
+ -t 1.118391333 -s 0 -d -1 -p ACK -e 38 -c 2 -a 0 -i 0 -k MAC 
- -t 1.118391333 -s 0 -d -1 -p ACK -e 38 -c 2 -a 0 -i 0 -k MAC
h -t 1.118391333 -s 0 -d -1 -p ACK -e 38 -c 2 -a 0 -i 0 -k MAC
r -t 1.118406333 -s 0 -d 0 -p ack -e 60 -c 2 -a 0 -i 15 -k AGT
+ -t 1.118406333 -s 0 -d -1 -p tcp -e 1540 -c 2 -a 0 -i 22 -k AGT 
- -t 1.118406333 -s 0 -d -1 -p tcp -e 1540 -c 2 -a 0 -i 22 -k AGT
h -t 1.118406333 -s 0 -d -1 -p tcp -e 1540 -c 2 -a 0 -i 22 -k AGT
+ -t 1.118406333 -s 0 -d 1 -p tcp -e 1560 -c 2 -a 0 -i 22 -k RTR 
- -t 1.118406333 -s 0 -d 1 -p tcp -e 1560 -c 2 -a 0 -i 22 -k RTR
h -t 1.118406333 -s 0 -d 1 -p tcp -e 1560 -c 2 -a 0 -i 22 -k RTR
+ -t 1.118406333 -s 0 -d -1 -p tcp -e 1540 -c 2 -a 0 -i 23 -k AGT 
- -t 1.118406333 -s 0 -d -1 -p tcp -e 1540 -c 2 -a 0 -i 23 -k AGT
h -t 1.118406333 -s 0 -d -1 -p tcp -e 1540 -c 2 -a 0 -i 23 -k AGT
+ -t 1.118406333 -s 0 -d 1 -p tcp -e 1560 -c 2 -a 0 -i 23 -k RTR 
- -t 1.118406333 -s 0 -d 1 -p tcp -e 1560 -c 2 -a 0 -i 23 -k RTR
h -t 1.118406333 -s 0 -d 1 -p tcp -e 1560 -c 2 -a 0 -i 23 -k RTR
r -t 1.118695667 -s 1 -d -1 -p ACK -e 38 -c 2 -a 0 -i 0 -k MAC
+ -t 1.118965667 -s 1 -d -1 -p RTS -e 44 -c 2 -a 0 -i 0 -k MAC 
- -t 1.118965667 -s 1 -d -1 -p RTS -e 44 -c 2 -a 0 -i 0 -k MAC
h -t 1.118965667 -s 1 -d -1 -p RTS -e 44 -c 2 -a 0 -i 0 -k MAC
r -t 1.119318000 -s 0 -d -1 -p RTS -e 44 -c 2 -a 0 -i 0 -k MAC
+ -t 1.119328000 -s 0 -d -1 -p CTS -e 38 -c 2 -a 0 -i 0 -k MAC 
- -t 1.119328000 -s 0 -d -1 -p CTS -e 38 -c 2 -a 0 -i 0 -k MAC
h -t 1.119328000 -s 0 -d -1 -p CTS -e 38 -c 2 -a 0 -i 0 -k MAC
r -t 1.119632333 -s 1 -d -1 -p CTS -e 38 -c 2 -a 0 -i 0 -k MAC
+ -t 1.119642333 -s 1 -d 0 -p ack -e 118 -c 2 -a 0 -i 16 -k MAC 
- -t 1.119642333 -s 1 -d 0 -p ack -e 118 -c 2 -a 0 -i 16 -k MAC
h -t 1.119642333 -s 1 -d 0 -p ack -e 118 -c 2 -a 0 -i 16 -k MAC
r -t 1.120586667 -s 0 -d 0 -p ack -e 60 -c 2 -a 0 -i 16 -k MAC
+ -t 1.120596667 -s 0 -d -1 -p ACK -e 38 -c 2 -a 0 -i 0 -k MAC 
- -t 1.120596667 -s 0 -d -1 -p ACK -e 38 -c 2 -a 0 -i 0 -k MAC
h -t 1.120596667 -s 0 -d -1 -p ACK -e 38 -c 2 -a 0 -i 0 -k MAC
r -t 1.120611667 -s 0 -d 0 -p ack -e 60 -c 2 -a 0 -i 16 -k AGT
+ -t 1.120611667 -s 0 -d -1 -p tcp -e 1540 -c 2 -a 0 -i 24 -k AGT 
- -t 1.120611667 -s 0 -d -1 -p tcp -e 1540 -c 2 -a 0 -i 24 -k AGT
h -t 1.120611667 -s 0 -d -1 -p tcp -e 1540 -c 2 -a 0 -i 24 -k AGT
+ -t 1.120611667 -s 0 -d 1 -p tcp -e 1560 -c 2 -a 0 -i 24 -k RTR 
- -t 1.120611667 -s 0 -d 1 -p tcp -e 1560 -c 2 -a 0 -i 24 -k RTR
h -t 1.120611667 -s 0 -d 1 -p tcp -e 1560 -c 2 -a 0 -i 24 -k RTR
+ -t 1.120611667 -s 0 -d -1 -p tcp -e 1540 -c 2 -a 0 -i 25 -k AGT 
- -t 1.120611667 -s 0 -d -1 -p tcp -e 1540 -c 2 -a 0 -i 25 -k AGT
h -t 1.120611667 -s 0 -d -1 -p tcp -e 1540 -c 2 -a 0 -i 25 -k AGT
+ -t 1.120611667 -s 0 -d 1 -p tcp -e 1560 -c 2 -a 0 -i 25 -k RTR 
- -t 1.120611667 -s 0 -d 1 -p tcp -e 1560 -c 2 -a 0 -i 25 -k RTR
h -t 1.120611667 -s 0 -d 1 -p tcp -e 1560 -c 2 -a 0 -i 25 -k RTR
r -t 1.120901000 -s 1 -d -1 -p ACK -e 38 -c 2 -a 0 -i 0 -k MAC
+ -t 1.121151000 -s 1 -d -1 -p RTS -e 44 -c 2 -a 0 -i 0 -k MAC 
- -t 1.121151000 -s 1 -d -1 -p RTS -e 44 -c 2 -a 0 -i 0 -k MAC
h -t 1.121151000 -s 1 -d -1 -p RTS -e 44 -c 2 -a 0 -i 0 -k MAC
r -t 1.121503333 -s 0 -d -1 -p RTS -e 44 -c 2 -a 0 -i 0 -k MAC
+ -t 1.121513333 -s 0 -d -1 -p CTS -e 38 -c 2 -a 0 -i 0 -k MAC 