s 0.195900028 _3_ RTR  --- 0 message 32 [0 0 0 0] ------- [3:255 -1:255 32 0] 
s 0.196055028 _3_ MAC  --- 0 message 90 [0 ffffffff 3 800] ------- [3:255 -1:255 32 0] 
r 0.196775695 _2_ MAC  --- 0 message 32 [0 ffffffff 3 800] ------- [3:255 -1:255 32 0] 
r 0.196775695 _7_ MAC  --- 0 message 32 [0 ffffffff 3 800] ------- [3:255 -1:255 32 0] 
r 0.196800695 _2_ RTR  --- 0 message 32 [0 ffffffff 3 800] ------- [3:255 -1:255 32 0] 
r 0.196800695 _7_ RTR  --- 0 message 32 [0 ffffffff 3 800] ------- [3:255 -1:255 32 0] 
s 0.353652583 _2_ RTR  --- 1 message 32 [0 0 0 0] ------- [2:255 -1:255 32 0] 
s 0.354247583 _2_ MAC  --- 1 message 90 [0 ffffffff 2 800] ------- [2:255 -1:255 32 0] 
r 0.354968250 _1_ MAC  --- 1 message 32 [0 ffffffff 2 800] ------- [2:255 -1:255 32 0] 
r 0.354968250 _6_ MAC  --- 1 message 32 [0 ffffffff 2 800] ------- [2:255 -1:255 32 0] 
r 0.354968250 _3_ MAC  --- 1 message 32 [0 ffffffff 2 800] ------- [2:255 -1:255 32 0] 
r 0.354993250 _1_ RTR  --- 1 message 32 [0 ffffffff 2 800] ------- [2:255 -1:255 32 0] 
r 0.354993250 _6_ RTR  --- 1 message 32 [0 ffffffff 2 800] ------- [2:255 -1:255 32 0] 
r 0.354993250 _3_ RTR  --- 1 message 32 [0 ffffffff 2 800] ------- [2:255 -1:255 32 0] 
s 0.443232397 _13_ RTR  --- 2 message 32 [0 0 0 0] ------- [13:255 -1:255 32 0] 
s 0.443367397 _13_ MAC  --- 2 message 90 [0 ffffffff d 800] ------- [13:255 -1:255 32 0] 
r 0.444088064 _9_ MAC  --- 2 message 32 [0 ffffffff d 800] ------- [13:255 -1:255 32 0] 
r 0.444088064 _12_ MAC  --- 2 message 32 [0 ffffffff d 800] ------- [13:255 -1:255 32 0] 
r 0.444088064 _14_ MAC  --- 2 message 32 [0 ffffffff d 800] ------- [13:255 -1:255 32 0] 
r 0.444113064 _9_ RTR  --- 2 message 32 [0 ffffffff d 800] ------- [13:255 -1:255 32 0] 
r 0.444113064 _12_ RTR  --- 2 message 32 [0 ffffffff d 800] ------- [13:255 -1:255 32 0] 
r 0.444113064 _14_ RTR  --- 2 message 32 [0 ffffffff d 800] ------- [13:255 -1:255 32 0] 
s 0.488401530 _14_ RTR  --- 3 message 32 [0 0 0 0] ------- [14:255 -1:255 32 0] 
s 0.488756530 _14_ MAC  --- 3 message 90 [0 ffffffff e 800] ------- [14:255 -1:255 32 0] 
r 0.489477197 _10_ MAC  --- 3 message 32 [0 ffffffff e 800] ------- [14:255 -1:255 32 0] 
r 0.489477197 _13_ MAC  --- 3 message 32 [0 ffffffff e 800] ------- [14:255 -1:255 32 0] 
r 0.489477197 _15_ MAC  --- 3 message 32 [0 ffffffff e 800] ------- [14:255 -1:255 32 0] 
r 0.489502197 _10_ RTR  --- 3 message 32 [0 ffffffff e 800] ------- [14:255 -1:255 32 0] 
r 0.489502197 _13_ RTR  --- 3 message 32 [0 ffffffff e 800] ------- [14:255 -1:255 32 0] 
r 0.489502197 _15_ RTR  --- 3 message 32 [0 ffffffff e 800] ------- [14:255 -1:255 32 0] 
s 0.518745835 _6_ RTR  --- 4 message 32 [0 0 0 0] ------- [6:255 -1:255 32 0] 
s 0.518820835 _6_ MAC  --- 4 message 90 [0 ffffffff 6 800] ------- [6:255 -1:255 32 0] 
r 0.519541502 _2_ MAC  --- 4 message 32 [0 ffffffff 6 800] ------- [6:255 -1:255 32 0] 
r 0.519541502 _5_ MAC  --- 4 message 32 [0 ffffffff 6 800] ------- [6:255 -1:255 32 0] 
r 0.519541502 _10_ MAC  --- 4 message 32 [0 ffffffff 6 800] ------- [6:255 -1:255 32 0] 
r 0.519541502 _7_ MAC  --- 4 message 32 [0 ffffffff 6 800] ------- [6:255 -1:255 32 0] 
r 0.519566502 _2_ RTR  --- 4 message 32 [0 ffffffff 6 800] ------- [6:255 -1:255 32 0] 
r 0.519566502 _5_ RTR  --- 4 message 32 [0 ffffffff 6 800] ------- [6:255 -1:255 32 0] 
r 0.519566502 _10_ RTR  --- 4 message 32 [0 ffffffff 6 800] ------- [6:255 -1:255 32 0] 
r 0.519566502 _7_ RTR  --- 4 message 32 [0 ffffffff 6 800] ------- [6:255 -1:255 32 0] 
s 0.700100293 _5_ RTR  --- 5 message 32 [0 0 0 0] ------- [5:255 -1:255 32 0] 
s 0.700395293 _5_ MAC  --- 5 message 90 [0 ffffffff 5 800] ------- [5:255 -1:255 32 0] 
r 0.701115959 _1_ MAC  --- 5 message 32 [0 ffffffff 5 800] ------- [5:255 -1:255 32 0] 
r 0.701115959 _4_ MAC  --- 5 message 32 [0 ffffffff 5 800] ------- [5:255 -1:255 32 0] 
r 0.701115959 _9_ MAC  --- 5 message 32 [0 ffffffff 5 800] ------- [5:255 -1:255 32 0] 
r 0.701115959 _6_ MAC  --- 5 message 32 [0 ffffffff 5 800] ------- [5:255 -1:255 32 0] 
r 0.701140959 _1_ RTR  --- 5 message 32 [0 ffffffff 5 800] ------- [5:255 -1:255 32 0] 
r 0.701140959 _4_ RTR  --- 5 message 32 [0 ffffffff 5 800] ------- [5:255 -1:255 32 0] 
r 0.701140959 _9_ RTR  --- 5 message 32 [0 ffffffff 5 800] ------- [5:255 -1:255 32 0] 
r 0.701140959 _6_ RTR  --- 5 message 32 [0 ffffffff 5 800] ------- [5:255 -1:255 32 0] 
s 0.820644522 _7_ RTR  --- 6 message 32 [0 0 0 0] ------- [7:255 -1:255 32 0] 
s 0.820959522 _7_ MAC  --- 6 message 90 [0 ffffffff 7 800] ------- [7:255 -1:255 32 0] 
r 0.821680189 _3_ MAC  --- 6 message 32 [0 ffffffff 7 800] ------- [7:255 -1:255 32 0] 
r 0.821680189 _6_ MAC  --- 6 message 32 [0 ffffffff 7 800] ------- [7:255 -1:255 32 0] 
r 0.821680189 _11_ MAC  --- 6 message 32 [0 ffffffff 7 800] ------- [7:255 -1:255 32 0] 
r 0.821705189 _3_ RTR  --- 6 message 32 [0 ffffffff 7 800] ------- [7:255 -1:255 32 0] 
r 0.821705189 _6_ RTR  --- 6 message 32 [0 ffffffff 7 800] ------- [7:255 -1:255 32 0] 
r 0.821705189 _11_ RTR  --- 6 message 32 [0 ffffffff 7 800] ------- [7:255 -1:255 32 0] 
s 0.855040430 _1_ RTR  --- 7 message 32 [0 0 0 0] ------- [1:255 -1:255 32 0] 
s 0.855595430 _1_ MAC  --- 7 message 90 [0 ffffffff 1 800] ------- [1:255 -1:255 32 0] 
r 0.856316097 _0_ MAC  --- 7 message 32 [0 ffffffff 1 800] ------- [1:255 -1:255 32 0] 
r 0.856316097 _5_ MAC  --- 7 message 32 [0 ffffffff 1 800] ------- [1:255 -1:255 32 0] 
r 0.856316097 _2_ MAC  --- 7 message 32 [0 ffffffff 1 800] ------- [1:255 -1:255 32 0] 
r 0.856341097 _0_ RTR  --- 7 message 32 [0 ffffffff 1 800] ------- [1:255 -1:255 32 0] 
r 0.856341097 _5_ RTR  --- 7 message 32 [0 ffffffff 1 800] ------- [1:255 -1:255 32 0] 
r 0.856341097 _2_ RTR  --- 7 message 32 [0 ffffffff 1 800] ------- [1:255 -1:255 32 0] 
s 0.941991940 _9_ RTR  --- 8 message 32 [0 0 0 0] ------- [9:255 -1:255 32 0] 
s 0.942106940 _9_ MAC  --- 8 message 90 [0 ffffffff 9 800] ------- [9:255 -1:255 32 0] 
r 0.942827606 _5_ MAC  --- 8 message 32 [0 ffffffff 9 800] ------- [9:255 -1:255 32 0] 
r 0.942827606 _8_ MAC  --- 8 message 32 [0 ffffffff 9 800] ------- [9:255 -1:255 32 0] 
r 0.942827606 _13_ MAC  --- 8 message 32 [0 ffffffff 9 800] ------- [9:255 -1:255 32 0] 
r 0.942827606 _10_ MAC  --- 8 message 32 [0 ffffffff 9 800] ------- [9:255 -1:255 32 0] 
r 0.942852606 _5_ RTR  --- 8 message 32 [0 ffffffff 9 800] ------- [9:255 -1:255 32 0] 
r 0.942852606 _8_ RTR  --- 8 message 32 [0 ffffffff 9 800] ------- [9:255 -1:255 32 0] 
r 0.942852606 _13_ RTR  --- 8 message 32 [0 ffffffff 9 800] ------- [9:255 -1:255 32 0] 
r 0.942852606 _10_ RTR  --- 8 message 32 [0 ffffffff 9 800] ------- [9:255 -1:255 32 0] 
s 1.000000000 _0_ AGT  --- 9 tcp 40 [0 0 0 0] ------- [0:0 10:0 32 0] [0 0] 0 0
r 1.000000000 _0_ RTR  --- 9 tcp 40 [0 0 0 0] ------- [0:0 10:0 32 0] [0 0] 0 0
s 1.045948644 _8_ RTR  --- 10 message 32 [0 0 0 0] ------- [8:255 -1:255 32 0] 
s 1.046123644 _8_ MAC  --- 10 message 90 [0 ffffffff 8 800] ------- [8:255 -1:255 32 0] 
r 1.046844311 _4_ MAC  --- 10 message 32 [0 ffffffff 8 800] ------- [8:255 -1:255 32 0] 
r 1.046844311 _12_ MAC  --- 10 message 32 [0 ffffffff 8 800] ------- [8:255 -1:255 32 0] 
r 1.046844311 _9_ MAC  --- 10 message 32 [0 ffffffff 8 800] ------- [8:255 -1:255 32 0] 
r 1.046869311 _4_ RTR  --- 10 message 32 [0 ffffffff 8 800] ------- [8:255 -1:255 32 0] 
r 1.046869311 _12_ RTR  --- 10 message 32 [0 ffffffff 8 800] ------- [8:255 -1:255 32 0] 
r 1.046869311 _9_ RTR  --- 10 message 32 [0 ffffffff 8 800] ------- [8:255 -1:255 32 0] 
s 1.355579888 _16_ RTR  --- 11 message 32 [0 0 0 0] ------- [16:255 -1:255 32 0] 
s 1.355714888 _16_ MAC  --- 11 message 90 [0 ffffffff 10 800] ------- [16:255 -1:255 32 0] 
s 1.393360128 _10_ RTR  --- 12 message 32 [0 0 0 0] ------- [10:255 -1:255 32 0] 
s 1.393495128 _10_ MAC  --- 12 message 90 [0 ffffffff a 800] ------- [10:255 -1:255 32 0] 
r 1.394215795 _6_ MAC  --- 12 message 32 [0 ffffffff a 800] ------- [10:255 -1:255 32 0] 
r 1.394215795 _9_ MAC  --- 12 message 32 [0 ffffffff a 800] ------- [10:255 -1:255 32 0] 
r 1.394215795 _14_ MAC  --- 12 message 32 [0 ffffffff a 800] ------- [10:255 -1:255 32 0] 
r 1.394215795 _11_ MAC  --- 12 message 32 [0 ffffffff a 800] ------- [10:255 -1:255 32 0] 
r 1.394240795 _6_ RTR  --- 12 message 32 [0 ffffffff a 800] ------- [10:255 -1:255 32 0] 
r 1.394240795 _9_ RTR  --- 12 message 32 [0 ffffffff a 800] ------- [10:255 -1:255 32 0] 
r 1.394240795 _14_ RTR  --- 12 message 32 [0 ffffffff a 800] ------- [10:255 -1:255 32 0] 
r 1.394240795 _11_ RTR  --- 12 message 32 [0 ffffffff a 800] ------- [10:255 -1:255 32 0] 
s 1.617617693 _4_ RTR  --- 13 message 32 [0 0 0 0] ------- [4:255 -1:255 32 0] 
s 1.618132693 _4_ MAC  --- 13 message 90 [0 ffffffff 4 800] ------- [4:255 -1:255 32 0] 
r 1.618853360 _0_ MAC  --- 13 message 32 [0 ffffffff 4 800] ------- [4:255 -1:255 32 0] 
r 1.618853360 _8_ MAC  --- 13 message 32 [0 ffffffff 4 800] ------- [4:255 -1:255 32 0] 
r 1.618853360 _5_ MAC  --- 13 message 32 [0 ffffffff 4 800] ------- [4:255 -1:255 32 0] 
r 1.618878360 _0_ RTR  --- 13 message 32 [0 ffffffff 4 800] ------- [4:255 -1:255 32 0] 
r 1.618878360 _8_ RTR  --- 13 message 32 [0 ffffffff 4 800] ------- [4:255 -1:255 32 0] 
r 1.618878360 _5_ RTR  --- 13 message 32 [0 ffffffff 4 800] ------- [4:255 -1:255 32 0] 
s 1.686285665 _12_ RTR  --- 14 message 32 [0 0 0 0] ------- [12:255 -1:255 32 0] 
s 1.686660665 _12_ MAC  --- 14 message 90 [0 ffffffff c 800] ------- [12:255 -1:255 32 0] 
r 1.687381332 _8_ MAC  --- 14 message 32 [0 ffffffff c 800] ------- [12:255 -1:255 32 0] 
r 1.687381332 _13_ MAC  --- 14 message 32 [0 ffffffff c 800] ------- [12:255 -1:255 32 0] 
r 1.687406332 _8_ RTR  --- 14 message 32 [0 ffffffff c 800] ------- [12:255 -1:255 32 0] 
r 1.687406332 _13_ RTR  --- 14 message 32 [0 ffffffff c 800] ------- [12:255 -1:255 32 0] 
s 1.705949142 _15_ RTR  --- 15 message 32 [0 0 0 0] ------- [15:255 -1:255 32 0] 
s 1.706244142 _15_ MAC  --- 15 message 90 [0 ffffffff f 800] ------- [15:255 -1:255 32 0] 
r 1.706964809 _11_ MAC  --- 15 message 32 [0 ffffffff f 800] ------- [15:255 -1:255 32 0] 
r 1.706964809 _14_ MAC  --- 15 message 32 [0 ffffffff f 800] ------- [15:255 -1:255 32 0] 
r 1.706989809 _11_ RTR  --- 15 message 32 [0 ffffffff f 800] ------- [15:255 -1:255 32 0] 
r 1.706989809 _14_ RTR  --- 15 message 32 [0 ffffffff f 800] ------- [15:255 -1:255 32 0] 
s 1.724462485 _11_ RTR  --- 17 message 32 [0 0 0 0] ------- [11:255 -1:255 32 0] 
s 1.724697485 _11_ MAC  --- 17 message 90 [0 ffffffff b 800] ------- [11:255 -1:255 32 0] 
r 1.725418152 _7_ MAC  --- 17 message 32 [0 ffffffff b 800] ------- [11:255 -1:255 32 0] 
r 1.725418152 _10_ MAC  --- 17 message 32 [0 ffffffff b 800] ------- [11:255 -1:255 32 0] 
r 1.725418152 _15_ MAC  --- 17 message 32 [0 ffffffff b 800] ------- [11:255 -1:255 32 0] 
r 1.725443152 _7_ RTR  --- 17 message 32 [0 ffffffff b 800] ------- [11:255 -1:255 32 0] 
r 1.725443152 _10_ RTR  --- 17 message 32 [0 ffffffff b 800] ------- [11:255 -1:255 32 0] 
r 1.725443152 _15_ RTR  --- 17 message 32 [0 ffffffff b 800] ------- [11:255 -1:255 32 0] 
s 1.726412293 _0_ RTR  --- 16 message 32 [0 0 0 0] ------- [0:255 -1:255 32 0] 
s 1.726487293 _0_ MAC  --- 16 message 90 [0 ffffffff 0 800] ------- [0:255 -1:255 32 0] 
r 1.727207960 _4_ MAC  --- 16 message 32 [0 ffffffff 0 800] ------- [0:255 -1:255 32 0] 
r 1.727207960 _1_ MAC  --- 16 message 32 [0 ffffffff 0 800] ------- [0:255 -1:255 32 0] 
r 1.727232960 _4_ RTR  --- 16 message 32 [0 ffffffff 0 800] ------- [0:255 -1:255 32 0] 
r 1.727232960 _1_ RTR  --- 16 message 32 [0 ffffffff 0 800] ------- [0:255 -1:255 32 0] 
s 2.000000000 _1_ AGT  --- 18 tcp 40 [0 0 0 0] ------- [1:0 10:1 32 0] [0 0] 0 0
r 2.000000000 _1_ RTR  --- 18 tcp 40 [0 0 0 0] ------- [1:0 10:1 32 0] [0 0] 0 0
s 3.000000000 _2_ AGT  --- 19 tcp 40 [0 0 0 0] ------- [2:0 10:2 32 0] [0 0] 0 0
r 3.000000000 _2_ RTR  --- 19 tcp 40 [0 0 0 0] ------- [2:0 10:2 32 0] [0 0] 0 0
s 4.000000000 _3_ AGT  --- 20 tcp 40 [0 0 0 0] ------- [3:0 10:3 32 0] [0 0] 0 0
r 4.000000000 _3_ RTR  --- 20 tcp 40 [0 0 0 0] ------- [3:0 10:3 32 0] [0 0] 0 0
s 5.000000000 _4_ AGT  --- 21 tcp 40 [0 0 0 0] ------- [4:0 10:4 32 0] [0 0] 0 0
r 5.000000000 _4_ RTR  --- 21 tcp 40 [0 0 0 0] ------- [4:0 10:4 32 0] [0 0] 0 0
s 6.000000000 _5_ AGT  --- 22 tcp 40 [0 0 0 0] ------- [5:0 10:5 32 0] [0 0] 0 0
r 6.000000000 _5_ RTR  --- 22 tcp 40 [0 0 0 0] ------- [5:0 10:5 32 0] [0 0] 0 0
s 7.000000000 _6_ AGT  --- 23 tcp 40 [0 0 0 0] ------- [6:0 10:6 32 0] [0 0] 0 0
r 7.000000000 _6_ RTR  --- 23 tcp 40 [0 0 0 0] ------- [6:0 10:6 32 0] [0 0] 0 0
s 7.000000000 _6_ RTR  --- 23 tcp 60 [0 0 0 0] ------- [6:0 10:6 32 10] [0 0] 0 0
s 7.000415000 _6_ MAC  --- 0 ARP 86 [0 ffffffff 6 806] ------- [REQUEST 6/6 0/10]
r 7.001103667 _2_ MAC  --- 0 ARP 28 [0 ffffffff 6 806] ------- [REQUEST 6/6 0/10]
r 7.001103667 _5_ MAC  --- 0 ARP 28 [0 ffffffff 6 806] ------- [REQUEST 6/6 0/10]
r 7.001103667 _10_ MAC  --- 0 ARP 28 [0 ffffffff 6 806] ------- [REQUEST 6/6 0/10]
r 7.001103667 _7_ MAC  --- 0 ARP 28 [0 ffffffff 6 806] ------- [REQUEST 6/6 0/10]
s 7.001578667 _10_ MAC  --- 0 RTS 44 [52e 6 a 0] 
r 7.001931333 _6_ MAC  --- 0 RTS 44 [52e 6 a 0] 
s 7.001941333 _6_ MAC  --- 0 CTS 38 [3f4 a 0 0] 
r 7.002246000 _10_ MAC  --- 0 CTS 38 [3f4 a 0 0] 
s 7.002256000 _10_ MAC  --- 0 ARP 86 [13a 6 a 806] ------- [REPLY 10/10 6/6]
r 7.002944667 _6_ MAC  --- 0 ARP 28 [13a 6 a 806] ------- [REPLY 10/10 6/6]
s 7.002954667 _6_ MAC  --- 0 ACK 38 [0 a 0 0] 
r 7.003259333 _10_ MAC  --- 0 ACK 38 [0 a 0 0] 
s 7.003808667 _6_ MAC  --- 0 RTS 44 [62e a 6 0] 
r 7.004161333 _10_ MAC  --- 0 RTS 44 [62e a 6 0] 
s 7.004171333 _10_ MAC  --- 0 CTS 38 [4f4 6 0 0] 
r 7.004476000 _6_ MAC  --- 0 CTS 38 [4f4 6 0 0] 
s 7.004486000 _6_ MAC  --- 23 tcp 118 [13a a 6 800] ------- [6:0 10:6 32 10] [0 0] 0 0
r 7.005430667 _10_ MAC  --- 23 tcp 60 [13a a 6 800] ------- [6:0 10:6 32 10] [0 0] 1 0
s 7.005440667 _10_ MAC  --- 0 ACK 38 [0 6 0 0] 
r 7.005455667 _10_ AGT  --- 23 tcp 60 [13a a 6 800] ------- [6:0 10:6 32 10] [0 0] 1 0
s 7.005455667 _10_ AGT  --- 24 ack 40 [0 0 0 0] ------- [10:6 6:0 32 0] [0 0] 0 0
r 7.005455667 _10_ RTR  --- 24 ack 40 [0 0 0 0] ------- [10:6 6:0 32 0] [0 0] 0 0
s 7.005455667 _10_ RTR  --- 24 ack 60 [0 0 0 0] ------- [10:6 6:0 32 6] [0 0] 0 0
r 7.005745333 _6_ MAC  --- 0 ACK 38 [0 6 0 0] 
s 7.005954667 _10_ MAC  --- 0 RTS 44 [62e 6 a 0] 
r 7.006307333 _6_ MAC  --- 0 RTS 44 [62e 6 a 0] 
s 7.006317333 _6_ MAC  --- 0 CTS 38 [4f4 a 0 0] 
r 7.006622000 _10_ MAC  --- 0 CTS 38 [4f4 a 0 0] 
s 7.006632000 _10_ MAC  --- 24 ack 118 [13a 6 a 800] ------- [10:6 6:0 32 6] [0 0] 0 0
r 7.007576667 _6_ MAC  --- 24 ack 60 [13a 6 a 800] ------- [10:6 6:0 32 6] [0 0] 1 0
s 7.007586667 _6_ MAC  --- 0 ACK 38 [0 a 0 0] 
r 7.007601667 _6_ AGT  --- 24 ack 60 [13a 6 a 800] ------- [10:6 6:0 32 6] [0 0] 1 0
s 7.007601667 _6_ AGT  --- 25 tcp 1540 [0 0 0 0] ------- [6:0 10:6 32 0] [1 0] 0 0
r 7.007601667 _6_ RTR  --- 25 tcp 1540 [0 0 0 0] ------- [6:0 10:6 32 0] [1 0] 0 0
s 7.007601667 _6_ RTR  --- 25 tcp 1560 [0 0 0 0] ------- [6:0 10:6 32 10] [1 0] 0 0
s 7.007601667 _6_ AGT  --- 26 tcp 1540 [0 0 0 0] ------- [6:0 10:6 32 0] [2 0] 0 0
r 7.007601667 _6_ RTR  --- 26 tcp 1540 [0 0 0 0] ------- [6:0 10:6 32 0] [2 0] 0 0
s 7.007601667 _6_ RTR  --- 26 tcp 1560 [0 0 0 0] ------- [6:0 10:6 32 10] [2 0] 0 0
r 7.007891333 _10_ MAC  --- 0 ACK 38 [0 a 0 0] 
s 7.008200667 _6_ MAC  --- 0 RTS 44 [350e a 6 0] 
r 7.008553333 _10_ MAC  --- 0 RTS 44 [350e a 6 0] 
s 7.008563333 _10_ MAC  --- 0 CTS 38 [33d4 6 0 0] 
r 7.008868000 _6_ MAC  --- 0 CTS 38 [33d4 6 0 0] 
s 7.008878000 _6_ MAC  --- 25 tcp 1618 [13a a 6 800] ------- [6:0 10:6 32 10] [1 0] 0 0
r 7.021822667 _10_ MAC  --- 25 tcp 1560 [13a a 6 800] ------- [6:0 10:6 32 10] [1 0] 1 0
s 7.021832667 _10_ MAC  --- 0 ACK 38 [0 6 0 0] 
r 7.021847667 _10_ AGT  --- 25 tcp 1560 [13a a 6 800] ------- [6:0 10:6 32 10] [1 0] 1 0
s 7.021847667 _10_ AGT  --- 27 ack 40 [0 0 0 0] ------- [10:6 6:0 32 0] [1 0] 0 0
r 7.021847667 _10_ RTR  --- 27 ack 40 [0 0 0 0] ------- [10:6 6:0 32 0] [1 0] 0 0
s 7.021847667 _10_ RTR  --- 27 ack 60 [0 0 0 0] ------- [10:6 6:0 32 6] [1 0] 0 0
r 7.022137333 _6_ MAC  --- 0 ACK 38 [0 6 0 0] 
s 7.022186667 _10_ MAC  --- 0 RTS 44 [62e 6 a 0] 
r 7.022539333 _6_ MAC  --- 0 RTS 44 [62e 6 a 0] 
s 7.022549333 _6_ MAC  --- 0 CTS 38 [4f4 a 0 0] 
r 7.022854000 _10_ MAC  --- 0 CTS 38 [4f4 a 0 0] 
s 7.022864000 _10_ MAC  --- 27 ack 118 [13a 6 a 800] ------- [10:6 6:0 32 6] [1 0] 0 0
r 7.023808667 _6_ MAC  --- 27 ack 60 [13a 6 a 800] ------- [10:6 6:0 32 6] [1 0] 1 0
s 7.023818667 _6_ MAC  --- 0 ACK 38 [0 a 0 0] 
r 7.023833667 _6_ AGT  --- 27 ack 60 [13a 6 a 800] ------- [10:6 6:0 32 6] [1 0] 1 0
s 7.023833667 _6_ AGT  --- 28 tcp 1540 [0 0 0 0] ------- [6:0 10:6 32 0] [3 0] 0 0
r 7.023833667 _6_ RTR  --- 28 tcp 1540 [0 0 0 0] ------- [6:0 10:6 32 0] [3 0] 0 0
s 7.023833667 _6_ RTR  --- 28 tcp 1560 [0 0 0 0] ------- [6:0 10:6 32 10] [3 0] 0 0
s 7.023833667 _6_ AGT  --- 29 tcp 1540 [0 0 0 0] ------- [6:0 10:6 32 0] [4 0] 0 0
r 7.023833667 _6_ RTR  --- 29 tcp 1540 [0 0 0 0] ------- [6:0 10:6 32 0] [4 0] 0 0
s 7.023833667 _6_ RTR  --- 29 tcp 1560 [0 0 0 0] ------- [6:0 10:6 32 10] [4 0] 0 0
r 7.024123333 _10_ MAC  --- 0 ACK 38 [0 a 0 0] 
s 7.024232667 _6_ MAC  --- 0 RTS 44 [350e a 6 0] 
r 7.024585333 _10_ MAC  --- 0 RTS 44 [350e a 6 0] 
s 7.024595333 _10_ MAC  --- 0 CTS 38 [33d4 6 0 0] 
r 7.024900000 _6_ MAC  --- 0 CTS 38 [33d4 6 0 0] 
s 7.024910000 _6_ MAC  --- 26 tcp 1618 [13a a 6 800] ------- [6:0 10:6 32 10] [2 0] 0 0
r 7.037854667 _10_ MAC  --- 26 tcp 1560 [13a a 6 800] ------- [6:0 10:6 32 10] [2 0] 1 0
s 7.037864667 _10_ MAC  --- 0 ACK 38 [0 6 0 0] 
r 7.037879667 _10_ AGT  --- 26 tcp 1560 [13a a 6 800] ------- [6:0 10:6 32 10] [2 0] 1 0
s 7.037879667 _10_ AGT  --- 30 ack 40 [0 0 0 0] ------- [10:6 6:0 32 0] [2 0] 0 0
r 7.037879667 _10_ RTR  --- 30 ack 40 [0 0 0 0] ------- [10:6 6:0 32 0] [2 0] 0 0
s 7.037879667 _10_ RTR  --- 30 ack 60 [0 0 0 0] ------- [10:6 6:0 32 6] [2 0] 0 0
r 7.038169333 _6_ MAC  --- 0 ACK 38 [0 6 0 0] 
s 7.038678667 _10_ MAC  --- 0 RTS 44 [62e 6 a 0] 
r 7.039031333 _6_ MAC  --- 0 RTS 44 [62e 6 a 0] 
s 7.039041333 _6_ MAC  --- 0 CTS 38 [4f4 a 0 0] 
r 7.039346000 _10_ MAC  --- 0 CTS 38 [4f4 a 0 0] 
s 7.039356000 _10_ MAC  --- 30 ack 118 [13a 6 a 800] ------- [10:6 6:0 32 6] [2 0] 0 0
r 7.040300667 _6_ MAC  --- 30 ack 60 [13a 6 a 800] ------- [10:6 6:0 32 6] [2 0] 1 0
s 7.040310667 _6_ MAC  --- 0 ACK 38 [0 a 0 0] 
r 7.040325667 _6_ AGT  --- 30 ack 60 [13a 6 a 800] ------- [10:6 6:0 32 6] [2 0] 1 0
s 7.040325667 _6_ AGT  --- 31 tcp 1540 [0 0 0 0] ------- [6:0 10:6 32 0] [5 0] 0 0
r 7.040325667 _6_ RTR  --- 31 tcp 1540 [0 0 0 0] ------- [6:0 10:6 32 0] [5 0] 0 0
s 7.040325667 _6_ RTR  --- 31 tcp 1560 [0 0 0 0] ------- [6:0 10:6 32 10] [5 0] 0 0
s 7.040325667 _6_ AGT  --- 32 tcp 1540 [0 0 0 0] ------- [6:0 10:6 32 0] [6 0] 0 0
r 7.040325667 _6_ RTR  --- 32 tcp 1540 [0 0 0 0] ------- [6:0 10:6 32 0] [6 0] 0 0
s 7.040325667 _6_ RTR  --- 32 tcp 1560 [0 0 0 0] ------- [6:0 10:6 32 10] [6 0] 0 0
r 7.040615333 _10_ MAC  --- 0 ACK 38 [0 a 0 0] 
s 7.040804667 _6_ MAC  --- 0 RTS 44 [350e a 6 0] 
r 7.041157333 _10_ MAC  --- 0 RTS 44 [350e a 6 0] 
s 7.041167333 _10_ MAC  --- 0 CTS 38 [33d4 6 0 0] 
r 7.041472000 _6_ MAC  --- 0 CTS 38 [33d4 6 0 0] 
s 7.041482000 _6_ MAC  --- 28 tcp 1618 [13a a 6 800] ------- [6:0 10:6 32 10] [3 0] 0 0
r 7.054426667 _10_ MAC  --- 28 tcp 1560 [13a a 6 800] ------- [6:0 10:6 32 10] [3 0] 1 0
s 7.054436667 _10_ MAC  --- 0 ACK 38 [0 6 0 0] 
r 7.054451667 _10_ AGT  --- 28 tcp 1560 [13a a 6 800] ------- [6:0 10:6 32 10] [3 0] 1 0
s 7.054451667 _10_ AGT  --- 33 ack 40 [0 0 0 0] ------- [10:6 6:0 32 0] [3 0] 0 0
r 7.054451667 _10_ RTR  --- 33 ack 40 [0 0 0 0] ------- [10:6 6:0 32 0] [3 0] 0 0
s 7.054451667 _10_ RTR  --- 33 ack 60 [0 0 0 0] ------- [10:6 6:0 32 6] [3 0] 0 0
r 7.054741333 _6_ MAC  --- 0 ACK 38 [0 6 0 0] 
s 7.054811333 _6_ MAC  --- 0 RTS 44 [350e a 6 0] 
r 7.055164000 _10_ MAC  --- 0 RTS 44 [350e a 6 0] 
s 7.055174000 _10_ MAC  --- 0 CTS 38 [33d4 6 0 0] 
r 7.055478667 _6_ MAC  --- 0 CTS 38 [33d4 6 0 0] 
s 7.055488667 _6_ MAC  --- 29 tcp 1618 [13a a 6 800] ------- [6:0 10:6 32 10] [4 0] 0 0
r 7.068433333 _10_ MAC  --- 29 tcp 1560 [13a a 6 800] ------- [6:0 10:6 32 10] [4 0] 1 0
s 7.068443333 _10_ MAC  --- 0 ACK 38 [0 6 0 0] 
r 7.068458333 _10_ AGT  --- 29 tcp 1560 [13a a 6 800] ------- [6:0 10:6 32 10] [4 0] 1 0
s 7.068458333 _10_ AGT  --- 34 ack 40 [0 0 0 0] ------- [10:6 6:0 32 0] [4 0] 0 0
r 7.068458333 _10_ RTR  --- 34 ack 40 [0 0 0 0] ------- [10:6 6:0 32 0] [4 0] 0 0
s 7.068458333 _10_ RTR  --- 34 ack 60 [0 0 0 0] ------- [10:6 6:0 32 6] [4 0] 0 0
r 7.068748000 _6_ MAC  --- 0 ACK 38 [0 6 0 0] 
s 7.068818000 _6_ MAC  --- 0 RTS 44 [350e a 6 0] 
r 7.069170667 _10_ MAC  --- 0 RTS 44 [350e a 6 0] 
s 7.069180667 _10_ MAC  --- 0 CTS 38 [33d4 6 0 0] 
r 7.069485333 _6_ MAC  --- 0 CTS 38 [33d4 6 0 0] 
s 7.069495333 _6_ MAC  --- 31 tcp 1618 [13a a 6 800] ------- [6:0 10:6 32 10] [5 0] 0 0
r 7.082440000 _10_ MAC  --- 31 tcp 1560 [13a a 6 800] ------- [6:0 10:6 32 10] [5 0] 1 0
s 7.082450000 _10_ MAC  --- 0 ACK 38 [0 6 0 0] 
r 7.082465000 _10_ AGT  --- 31 tcp 1560 [13a a 6 800] ------- [6:0 10:6 32 10] [5 0] 1 0
s 7.082465000 _10_ AGT  --- 35 ack 40 [0 0 0 0] ------- [10:6 6:0 32 0] [5 0] 0 0
r 7.082465000 _10_ RTR  --- 35 ack 40 [0 0 0 0] ------- [10:6 6:0 32 0] [5 0] 0 0
s 7.082465000 _10_ RTR  --- 35 ack 60 [0 0 0 0] ------- [10:6 6:0 32 6] [5 0] 0 0
r 7.082754667 _6_ MAC  --- 0 ACK 38 [0 6 0 0] 
s 7.082864667 _6_ MAC  --- 0 RTS 44 [350e a 6 0] 
r 7.083217333 _10_ MAC  --- 0 RTS 44 [350e a 6 0] 
s 7.083227333 _10_ MAC  --- 0 CTS 38 [33d4 6 0 0] 
r 7.083532000 _6_ MAC  --- 0 CTS 38 [33d4 6 0 0] 
s 7.083542000 _6_ MAC  --- 32 tcp 1618 [13a a 6 800] ------- [6:0 10:6 32 10] [6 0] 0 0
r 7.096486667 _10_ MAC  --- 32 tcp 1560 [13a a 6 800] ------- [6:0 10:6 32 10] [6 0] 1 0
s 7.096496667 _10_ MAC  --- 0 ACK 38 [0 6 0 0] 
r 7.096511667 _10_ AGT  --- 32 tcp 1560 [13a a 6 800] ------- [6:0 10:6 32 10] [6 0] 1 0
s 7.096511667 _10_ AGT  --- 36 ack 40 [0 0 0 0] ------- [10:6 6:0 32 0] [6 0] 0 0
r 7.096511667 _10_ RTR  --- 36 ack 40 [0 0 0 0] ------- [10:6 6:0 32 0] [6 0] 0 0
s 7.096511667 _10_ RTR  --- 36 ack 60 [0 0 0 0] ------- [10:6 6:0 32 6] [6 0] 0 0
r 7.096801333 _6_ MAC  --- 0 ACK 38 [0 6 0 0] 
s 7.097030667 _10_ MAC  --- 0 RTS 44 [62e 6 a 0] 
r 7.097383333 _6_ MAC  --- 0 RTS 44 [62e 6 a 0] 
s 7.097393333 _6_ MAC  --- 0 CTS 38 [4f4 a 0 0] 
r 7.097698000 _10_ MAC  --- 0 CTS 38 [4f4 a 0 0] 
s 7.097708000 _10_ MAC  --- 33 ack 118 [13a 6 a 800] ------- [10:6 6:0 32 6] [3 0] 0 0
r 7.098652667 _6_ MAC  --- 33 ack 60 [13a 6 a 800] ------- [10:6 6:0 32 6] [3 0] 1 0
s 7.098662667 _6_ MAC  --- 0 ACK 38 [0 a 0 0] 
r 7.098677667 _6_ AGT  --- 33 ack 60 [13a 6 a 800] ------- [10:6 6:0 32 6] [3 0] 1 0
s 7.098677667 _6_ AGT  --- 37 tcp 1540 [0 0 0 0] ------- [6:0 10:6 32 0] [7 0] 0 0
r 7.098677667 _6_ RTR  --- 37 tcp 1540 [0 0 0 0] ------- [6:0 10:6 32 0] [7 0] 0 0
s 7.098677667 _6_ RTR  --- 37 tcp 1560 [0 0 0 0] ------- [6:0 10:6 32 10] [7 0] 0 0
s 7.098677667 _6_ AGT  --- 38 tcp 1540 [0 0 0 0] ------- [6:0 10:6 32 0] [8 0] 0 0
r 7.098677667 _6_ RTR  --- 38 tcp 1540 [0 0 0 0] ------- [6:0 10:6 32 0] [8 0] 0 0
s 7.098677667 _6_ RTR  --- 38 tcp 1560 [0 0 0 0] ------- [6:0 10:6 32 10] [8 0] 0 0
r 7.098967333 _10_ MAC  --- 0 ACK 38 [0 a 0 0] 
s 7.099037333 _10_ MAC  --- 0 RTS 44 [62e 6 a 0] 
r 7.099390000 _6_ MAC  --- 0 RTS 44 [62e 6 a 0] 
s 7.099400000 _6_ MAC  --- 0 CTS 38 [4f4 a 0 0] 
r 7.099704667 _10_ MAC  --- 0 CTS 38 [4f4 a 0 0] 
s 7.099714667 _10_ MAC  --- 34 ack 118 [13a 6 a 800] ------- [10:6 6:0 32 6] [4 0] 0 0
r 7.100659333 _6_ MAC  --- 34 ack 60 [13a 6 a 800] ------- [10:6 6:0 32 6] [4 0] 1 0
s 7.100669333 _6_ MAC  --- 0 ACK 38 [0 a 0 0] 
r 7.100684333 _6_ AGT  --- 34 ack 60 [13a 6 a 800] ------- [10:6 6:0 32 6] [4 0] 1 0
s 7.100684333 _6_ AGT  --- 39 tcp 1540 [0 0 0 0] ------- [6:0 10:6 32 0] [9 0] 0 0
r 7.100684333 _6_ RTR  --- 39 tcp 1540 [0 0 0 0] ------- [6:0 10:6 32 0] [9 0] 0 0
s 7.100684333 _6_ RTR  --- 39 tcp 1560 [0 0 0 0] ------- [6:0 10:6 32 10] [9 0] 0 0
s 7.100684333 _6_ AGT  --- 40 tcp 1540 [0 0 0 0] ------- [6:0 10:6 32 0] [10 0] 0 0
r 7.100684333 _6_ RTR  --- 40 tcp 1540 [0 0 0 0] ------- [6:0 10:6 32 0] [10 0] 0 0
s 7.100684333 _6_ RTR  --- 40 tcp 1560 [0 0 0 0] ------- [6:0 10:6 32 10] [10 0] 0 0
r 7.100974000 _10_ MAC  --- 0 ACK 38 [0 a 0 0] 
s 7.101044000 _10_ MAC  --- 0 RTS 44 [62e 6 a 0] 
r 7.101396667 _6_ MAC  --- 0 RTS 44 [62e 6 a 0] 
s 7.101406667 _6_ MAC  --- 0 CTS 38 [4f4 a 0 0] 
r 7.101711333 _10_ MAC  --- 0 CTS 38 [4f4 a 0 0] 
s 7.101721333 _10_ MAC  --- 35 ack 118 [13a 6 a 800] ------- [10:6 6:0 32 6] [5 0] 0 0
r 7.102666000 _6_ MAC  --- 35 ack 60 [13a 6 a 800] ------- [10:6 6:0 32 6] [5 0] 1 0
s 7.102676000 _6_ MAC  --- 0 ACK 38 [0 a 0 0] 
r 7.102691000 _6_ AGT  --- 35 ack 60 [13a 6 a 800] ------- [10:6 6:0 32 6] [5 0] 1 0
s 7.102691000 _6_ AGT  --- 41 tcp 1540 [0 0 0 0] ------- [6:0 10:6 32 0] [11 0] 0 0
r 7.102691000 _6_ RTR  --- 41 tcp 1540 [0 0 0 0] ------- [6:0 10:6 32 0] [11 0] 0 0
s 7.102691000 _6_ RTR  --- 41 tcp 1560 [0 0 0 0] ------- [6:0 10:6 32 10] [11 0] 0 0
s 7.102691000 _6_ AGT  --- 42 tcp 1540 [0 0 0 0] ------- [6:0 10:6 32 0] [12 0] 0 0
r 7.102691000 _6_ RTR  --- 42 tcp 1540 [0 0 0 0] ------- [6:0 10:6 32 0] [12 0] 0 0
s 7.102691000 _6_ RTR  --- 42 tcp 1560 [0 0 0 0] ------- [6:0 10:6 32 10] [12 0] 0 0
r 7.102980667 _10_ MAC  --- 0 ACK 38 [0 a 0 0] 
s 7.103070000 _6_ MAC  --- 0 RTS 44 [350e a 6 0] 
r 7.103422667 _10_ MAC  --- 0 RTS 44 [350e a 6 0] 
s 7.103432667 _10_ MAC  --- 0 CTS 38 [33d4 6 0 0] 
r 7.103737333 _6_ MAC  --- 0 CTS 38 [33d4 6 0 0] 
s 7.103747333 _6_ MAC  --- 37 tcp 1618 [13a a 6 800] ------- [6:0 10:6 32 10] [7 0] 0 0
r 7.116692000 _10_ MAC  --- 37 tcp 1560 [13a a 6 800] ------- [6:0 10:6 32 10] [7 0] 1 0
s 7.116702000 _10_ MAC  --- 0 ACK 38 [0 6 0 0] 
r 7.116717000 _10_ AGT  --- 37 tcp 1560 [13a a 6 800] ------- [6:0 10:6 32 10] [7 0] 1 0
s 7.116717000 _10_ AGT  --- 43 ack 40 [0 0 0 0] ------- [10:6 6:0 32 0] [7 0] 0 0
r 7.116717000 _10_ RTR  --- 43 ack 40 [0 0 0 0] ------- [10:6 6:0 32 0] [7 0] 0 0
s 7.116717000 _10_ RTR  --- 43 ack 60 [0 0 0 0] ------- [10:6 6:0 32 6] [7 0] 0 0
r 7.117006667 _6_ MAC  --- 0 ACK 38 [0 6 0 0] 
s 7.117396000 _10_ MAC  --- 0 RTS 44 [62e 6 a 0] 
r 7.117748667 _6_ MAC  --- 0 RTS 44 [62e 6 a 0] 
s 7.117758667 _6_ MAC  --- 0 CTS 38 [4f4 a 0 0] 
r 7.118063333 _10_ MAC  --- 0 CTS 38 [4f4 a 0 0] 
s 7.118073333 _10_ MAC  --- 36 ack 118 [13a 6 a 800] ------- [10:6 6:0 32 6] [6 0] 0 0
r 7.119018000 _6_ MAC  --- 36 ack 60 [13a 6 a 800] ------- [10:6 6:0 32 6] [6 0] 1 0
s 7.119028000 _6_ MAC  --- 0 ACK 38 [0 a 0 0] 
r 7.119043000 _6_ AGT  --- 36 ack 60 [13a 6 a 800] ------- [10:6 6:0 32 6] [6 0] 1 0
s 7.119043000 _6_ AGT  --- 44 tcp 1540 [0 0 0 0] ------- [6:0 10:6 32 0] [13 0] 0 0
r 7.119043000 _6_ RTR  --- 44 tcp 1540 [0 0 0 0] ------- [6:0 10:6 32 0] [13 0] 0 0
s 7.119043000 _6_ RTR  --- 44 tcp 1560 [0 0 0 0] ------- [6:0 10:6 32 10] [13 0] 0 0
s 7.119043000 _6_ AGT  --- 45 tcp 1540 [0 0 0 0] ------- [6:0 10:6 32 0] [14 0] 0 0
r 7.119043000 _6_ RTR  --- 45 tcp 1540 [0 0 0 0] ------- [6:0 10:6 32 0] [14 0] 0 0
s 7.119043000 _6_ RTR  --- 45 tcp 1560 [0 0 0 0] ------- [6:0 10:6 32 10] [14 0] 0 0
r 7.119332667 _10_ MAC  --- 0 ACK 38 [0 a 0 0] 
s 7.119482000 _6_ MAC  --- 0 RTS 44 [350e a 6 0] 
r 7.119834667 _10_ MAC  --- 0 RTS 44 [350e a 6 0] 
s 7.119844667 _10_ MAC  --- 0 CTS 38 [33d4 6 0 0] 
r 7.120149333 _6_ MAC  --- 0 CTS 38 [33d4 6 0 0] 
s 7.120159333 _6_ MAC  --- 38 tcp 1618 [13a a 6 800] ------- [6:0 10:6 32 10] [8 0] 0 0
r 7.133104000 _10_ MAC  --- 38 tcp 1560 [13a a 6 800] ------- [6:0 10:6 32 10] [8 0] 1 0
s 7.133114000 _10_ MAC  --- 0 ACK 38 [0 6 0 0] 
r 7.133129000 _10_ AGT  --- 38 tcp 1560 [13a a 6 800] ------- [6:0 10:6 32 10] [8 0] 1 0
s 7.133129000 _10_ AGT  --- 46 ack 40 [0 0 0 0] ------- [10:6 6:0 32 0] [8 0] 0 0
r 7.133129000 _10_ RTR  --- 46 ack 40 [0 0 0 0] ------- [10:6 6:0 32 0] [8 0] 0 0
s 7.133129000 _10_ RTR  --- 46 ack 60 [0 0 0 0] ------- [10:6 6:0 32 6] [8 0] 0 0
r 7.133418667 _6_ MAC  --- 0 ACK 38 [0 6 0 0] 
s 7.133768000 _10_ MAC  --- 0 RTS 44 [62e 6 a 0] 
r 7.134120667 _6_ MAC  --- 0 RTS 44 [62e 6 a 0] 
s 7.134130667 _6_ MAC  --- 0 CTS 38 [4f4 a 0 0] 
r 7.134435333 _10_ MAC  --- 0 CTS 38 [4f4 a 0 0] 
s 7.134445333 _10_ MAC  --- 43 ack 118 [13a 6 a 800] ------- [10:6 6:0 32 6] [7 0] 0 0
r 7.135390000 _6_ MAC  --- 43 ack 60 [13a 6 a 800] ------- [10:6 6:0 32 6] [7 0] 1 0
s 7.135400000 _6_ MAC  --- 0 ACK 38 [0 a 0 0] 
r 7.135415000 _6_ AGT  --- 43 ack 60 [13a 6 a 800] ------- [10:6 6:0 32 6] [7 0] 1 0
s 7.135415000 _6_ AGT  --- 47 tcp 1540 [0 0 0 0] ------- [6:0 10:6 32 0] [15 0] 0 0
r 7.135415000 _6_ RTR  --- 47 tcp 1540 [0 0 0 0] ------- [6:0 10:6 32 0] [15 0] 0 0
s 7.135415000 _6_ RTR  --- 47 tcp 1560 [0 0 0 0] ------- [6:0 10:6 32 10] [15 0] 0 0
s 7.135415000 _6_ AGT  --- 48 tcp 1540 [0 0 0 0] ------- [6:0 10:6 32 0] [16 0] 0 0
r 7.135415000 _6_ RTR  --- 48 tcp 1540 [0 0 0 0] ------- [6:0 10:6 32 0] [16 0] 0 0
s 7.135415000 _6_ RTR  --- 48 tcp 1560 [0 0 0 0] ------- [6:0 10:6 32 10] [16 0] 0 0
r 7.135704667 _10_ MAC  --- 0 ACK 38 [0 a 0 0] 
s 7.135934000 _6_ MAC  --- 0 RTS 44 [350e a 6 0] 
r 7.136286667 _10_ MAC  --- 0 RTS 44 [350e a 6 0] 
s 7.136296667 _10_ MAC  --- 0 CTS 38 [33d4 6 0 0] 
r 7.136601333 _6_ MAC  --- 0 CTS 38 [33d4 6 0 0] 
s 7.136611333 _6_ MAC  --- 39 tcp 1618 [13a a 6 800] ------- [6:0 10:6 32 10] [9 0] 0 0
r 7.149556000 _10_ MAC  --- 39 tcp 1560 [13a a 6 800] ------- [6:0 10:6 32 10] [9 0] 1 0
s 7.149566000 _10_ MAC  --- 0 ACK 38 [0 6 0 0] 
r 7.149581000 _10_ AGT  --- 39 tcp 1560 [13a a 6 800] ------- [6:0 10:6 32 10] [9 0] 1 0
s 7.149581000 _10_ AGT  --- 49 ack 40 [0 0 0 0] ------- [10:6 6:0 32 0] [9 0] 0 0
r 7.149581000 _10_ RTR  --- 49 ack 40 [0 0 0 0] ------- [10:6 6:0 32 0] [9 0] 0 0
s 7.149581000 _10_ RTR  --- 49 ack 60 [0 0 0 0] ------- [10:6 6:0 32 6] [9 0] 0 0