n -t * -s 0  -x 502 -y 701 -Z 0 -z 20  -v circle -c black
n -t * -s 1  -x 702 -y 701 -Z 0 -z 20  -v circle -c black
n -t * -s 2  -x 902 -y 701 -Z 0 -z 20  -v circle -c black
n -t * -s 3  -x 1102 -y 701 -Z 0 -z 20  -v circle -c black
n -t * -s 4  -x 502 -y 501 -Z 0 -z 20  -v circle -c black
n -t * -s 5  -x 702 -y 501 -Z 0 -z 20  -v circle -c black
n -t * -s 6  -x 902 -y 501 -Z 0 -z 20  -v circle -c black
n -t * -s 7  -x 1102 -y 501 -Z 0 -z 20  -v circle -c black
n -t * -s 8  -x 502 -y 301 -Z 0 -z 20  -v circle -c black
n -t * -s 9  -x 702 -y 301 -Z 0 -z 20  -v circle -c black
n -t * -s 10  -x 902 -y 301 -Z 0 -z 20  -v circle -c black
n -t * -s 11  -x 1102 -y 301 -Z 0 -z 20  -v circle -c black
n -t * -s 12  -x 502 -y 101 -Z 0 -z 20  -v circle -c black
n -t * -s 13  -x 702 -y 101 -Z 0 -z 20  -v circle -c black
n -t * -s 14  -x 902 -y 101 -Z 0 -z 20  -v circle -c black
n -t * -s 15  -x 1102 -y 101 -Z 0 -z 20  -v circle -c black
n -t * -s 16  -x 1553 -y 527 -Z 0 -z 20  -v circle -c black
V -t * -v 1.0a5 -a 0
W -t * -x 2041 -y 100
A -t * -n 1 -p 0 -o 0x7fffffff -c 30 -a 1
A -t * -h 1 -m 1073741823 -s 0
+ -t 0.195900028 -s 3 -d -1 -p message -e 32 -c 2 -a 0 -i 0 -k RTR 
- -t 0.195900028 -s 3 -d -1 -p message -e 32 -c 2 -a 0 -i 0 -k RTR
h -t 0.195900028 -s 3 -d -1 -p message -e 32 -c 2 -a 0 -i 0 -k RTR
+ -t 0.196055028 -s 3 -d -1 -p message -e 90 -c 2 -a 0 -i 0 -k MAC 
- -t 0.196055028 -s 3 -d -1 -p message -e 90 -c 2 -a 0 -i 0 -k MAC
h -t 0.196055028 -s 3 -d -1 -p message -e 90 -c 2 -a 0 -i 0 -k MAC
r -t 0.196775695 -s 2 -d -1 -p message -e 32 -c 2 -a 0 -i 0 -k MAC
r -t 0.196775695 -s 7 -d -1 -p message -e 32 -c 2 -a 0 -i 0 -k MAC
r -t 0.196800695 -s 2 -d -1 -p message -e 32 -c 2 -a 0 -i 0 -k RTR
r -t 0.196800695 -s 7 -d -1 -p message -e 32 -c 2 -a 0 -i 0 -k RTR
+ -t 0.353652583 -s 2 -d -1 -p message -e 32 -c 2 -a 0 -i 1 -k RTR 
- -t 0.353652583 -s 2 -d -1 -p message -e 32 -c 2 -a 0 -i 1 -k RTR
h -t 0.353652583 -s 2 -d -1 -p message -e 32 -c 2 -a 0 -i 1 -k RTR
+ -t 0.354247583 -s 2 -d -1 -p message -e 90 -c 2 -a 0 -i 1 -k MAC 
- -t 0.354247583 -s 2 -d -1 -p message -e 90 -c 2 -a 0 -i 1 -k MAC
h -t 0.354247583 -s 2 -d -1 -p message -e 90 -c 2 -a 0 -i 1 -k MAC
r -t 0.354968250 -s 1 -d -1 -p message -e 32 -c 2 -a 0 -i 1 -k MAC
r -t 0.354968250 -s 6 -d -1 -p message -e 32 -c 2 -a 0 -i 1 -k MAC
r -t 0.354968250 -s 3 -d -1 -p message -e 32 -c 2 -a 0 -i 1 -k MAC
r -t 0.354993250 -s 1 -d -1 -p message -e 32 -c 2 -a 0 -i 1 -k RTR
r -t 0.354993250 -s 6 -d -1 -p message -e 32 -c 2 -a 0 -i 1 -k RTR
r -t 0.354993250 -s 3 -d -1 -p message -e 32 -c 2 -a 0 -i 1 -k RTR
+ -t 0.443232397 -s 13 -d -1 -p message -e 32 -c 2 -a 0 -i 2 -k RTR 
- -t 0.443232397 -s 13 -d -1 -p message -e 32 -c 2 -a 0 -i 2 -k RTR
h -t 0.443232397 -s 13 -d -1 -p message -e 32 -c 2 -a 0 -i 2 -k RTR
+ -t 0.443367397 -s 13 -d -1 -p message -e 90 -c 2 -a 0 -i 2 -k MAC 
- -t 0.443367397 -s 13 -d -1 -p message -e 90 -c 2 -a 0 -i 2 -k MAC
h -t 0.443367397 -s 13 -d -1 -p message -e 90 -c 2 -a 0 -i 2 -k MAC
r -t 0.444088064 -s 9 -d -1 -p message -e 32 -c 2 -a 0 -i 2 -k MAC
r -t 0.444088064 -s 12 -d -1 -p message -e 32 -c 2 -a 0 -i 2 -k MAC
r -t 0.444088064 -s 14 -d -1 -p message -e 32 -c 2 -a 0 -i 2 -k MAC
r -t 0.444113064 -s 9 -d -1 -p message -e 32 -c 2 -a 0 -i 2 -k RTR
r -t 0.444113064 -s 12 -d -1 -p message -e 32 -c 2 -a 0 -i 2 -k RTR
r -t 0.444113064 -s 14 -d -1 -p message -e 32 -c 2 -a 0 -i 2 -k RTR
+ -t 0.488401530 -s 14 -d -1 -p message -e 32 -c 2 -a 0 -i 3 -k RTR 
- -t 0.488401530 -s 14 -d -1 -p message -e 32 -c 2 -a 0 -i 3 -k RTR
h -t 0.488401530 -s 14 -d -1 -p message -e 32 -c 2 -a 0 -i 3 -k RTR
+ -t 0.488756530 -s 14 -d -1 -p message -e 90 -c 2 -a 0 -i 3 -k MAC 
- -t 0.488756530 -s 14 -d -1 -p message -e 90 -c 2 -a 0 -i 3 -k MAC
h -t 0.488756530 -s 14 -d -1 -p message -e 90 -c 2 -a 0 -i 3 -k MAC
r -t 0.489477197 -s 10 -d -1 -p message -e 32 -c 2 -a 0 -i 3 -k MAC
r -t 0.489477197 -s 13 -d -1 -p message -e 32 -c 2 -a 0 -i 3 -k MAC
r -t 0.489477197 -s 15 -d -1 -p message -e 32 -c 2 -a 0 -i 3 -k MAC
r -t 0.489502197 -s 10 -d -1 -p message -e 32 -c 2 -a 0 -i 3 -k RTR
r -t 0.489502197 -s 13 -d -1 -p message -e 32 -c 2 -a 0 -i 3 -k RTR
r -t 0.489502197 -s 15 -d -1 -p message -e 32 -c 2 -a 0 -i 3 -k RTR
+ -t 0.518745835 -s 6 -d -1 -p message -e 32 -c 2 -a 0 -i 4 -k RTR 
- -t 0.518745835 -s 6 -d -1 -p message -e 32 -c 2 -a 0 -i 4 -k RTR
h -t 0.518745835 -s 6 -d -1 -p message -e 32 -c 2 -a 0 -i 4 -k RTR
+ -t 0.518820835 -s 6 -d -1 -p message -e 90 -c 2 -a 0 -i 4 -k MAC 
- -t 0.518820835 -s 6 -d -1 -p message -e 90 -c 2 -a 0 -i 4 -k MAC
h -t 0.518820835 -s 6 -d -1 -p message -e 90 -c 2 -a 0 -i 4 -k MAC
r -t 0.519541502 -s 2 -d -1 -p message -e 32 -c 2 -a 0 -i 4 -k MAC
r -t 0.519541502 -s 5 -d -1 -p message -e 32 -c 2 -a 0 -i 4 -k MAC
r -t 0.519541502 -s 10 -d -1 -p message -e 32 -c 2 -a 0 -i 4 -k MAC
r -t 0.519541502 -s 7 -d -1 -p message -e 32 -c 2 -a 0 -i 4 -k MAC
r -t 0.519566502 -s 2 -d -1 -p message -e 32 -c 2 -a 0 -i 4 -k RTR
r -t 0.519566502 -s 5 -d -1 -p message -e 32 -c 2 -a 0 -i 4 -k RTR
r -t 0.519566502 -s 10 -d -1 -p message -e 32 -c 2 -a 0 -i 4 -k RTR
r -t 0.519566502 -s 7 -d -1 -p message -e 32 -c 2 -a 0 -i 4 -k RTR
+ -t 0.700100293 -s 5 -d -1 -p message -e 32 -c 2 -a 0 -i 5 -k RTR 
- -t 0.700100293 -s 5 -d -1 -p message -e 32 -c 2 -a 0 -i 5 -k RTR
h -t 0.700100293 -s 5 -d -1 -p message -e 32 -c 2 -a 0 -i 5 -k RTR
+ -t 0.700395293 -s 5 -d -1 -p message -e 90 -c 2 -a 0 -i 5 -k MAC 
- -t 0.700395293 -s 5 -d -1 -p message -e 90 -c 2 -a 0 -i 5 -k MAC
h -t 0.700395293 -s 5 -d -1 -p message -e 90 -c 2 -a 0 -i 5 -k MAC
r -t 0.701115959 -s 1 -d -1 -p message -e 32 -c 2 -a 0 -i 5 -k MAC
r -t 0.701115959 -s 4 -d -1 -p message -e 32 -c 2 -a 0 -i 5 -k MAC
r -t 0.701115959 -s 9 -d -1 -p message -e 32 -c 2 -a 0 -i 5 -k MAC
r -t 0.701115959 -s 6 -d -1 -p message -e 32 -c 2 -a 0 -i 5 -k MAC
r -t 0.701140959 -s 1 -d -1 -p message -e 32 -c 2 -a 0 -i 5 -k RTR
r -t 0.701140959 -s 4 -d -1 -p message -e 32 -c 2 -a 0 -i 5 -k RTR
r -t 0.701140959 -s 9 -d -1 -p message -e 32 -c 2 -a 0 -i 5 -k RTR
r -t 0.701140959 -s 6 -d -1 -p message -e 32 -c 2 -a 0 -i 5 -k RTR
+ -t 0.820644522 -s 7 -d -1 -p message -e 32 -c 2 -a 0 -i 6 -k RTR 
- -t 0.820644522 -s 7 -d -1 -p message -e 32 -c 2 -a 0 -i 6 -k RTR
h -t 0.820644522 -s 7 -d -1 -p message -e 32 -c 2 -a 0 -i 6 -k RTR
+ -t 0.820959522 -s 7 -d -1 -p message -e 90 -c 2 -a 0 -i 6 -k MAC 
- -t 0.820959522 -s 7 -d -1 -p message -e 90 -c 2 -a 0 -i 6 -k MAC
h -t 0.820959522 -s 7 -d -1 -p message -e 90 -c 2 -a 0 -i 6 -k MAC
r -t 0.821680189 -s 3 -d -1 -p message -e 32 -c 2 -a 0 -i 6 -k MAC
r -t 0.821680189 -s 6 -d -1 -p message -e 32 -c 2 -a 0 -i 6 -k MAC
r -t 0.821680189 -s 11 -d -1 -p message -e 32 -c 2 -a 0 -i 6 -k MAC
r -t 0.821705189 -s 3 -d -1 -p message -e 32 -c 2 -a 0 -i 6 -k RTR
r -t 0.821705189 -s 6 -d -1 -p message -e 32 -c 2 -a 0 -i 6 -k RTR
r -t 0.821705189 -s 11 -d -1 -p message -e 32 -c 2 -a 0 -i 6 -k RTR
+ -t 0.855040430 -s 1 -d -1 -p message -e 32 -c 2 -a 0 -i 7 -k RTR 
- -t 0.855040430 -s 1 -d -1 -p message -e 32 -c 2 -a 0 -i 7 -k RTR
h -t 0.855040430 -s 1 -d -1 -p message -e 32 -c 2 -a 0 -i 7 -k RTR
+ -t 0.855595430 -s 1 -d -1 -p message -e 90 -c 2 -a 0 -i 7 -k MAC 
- -t 0.855595430 -s 1 -d -1 -p message -e 90 -c 2 -a 0 -i 7 -k MAC
h -t 0.855595430 -s 1 -d -1 -p message -e 90 -c 2 -a 0 -i 7 -k MAC
r -t 0.856316097 -s 0 -d -1 -p message -e 32 -c 2 -a 0 -i 7 -k MAC
r -t 0.856316097 -s 5 -d -1 -p message -e 32 -c 2 -a 0 -i 7 -k MAC
r -t 0.856316097 -s 2 -d -1 -p message -e 32 -c 2 -a 0 -i 7 -k MAC
r -t 0.856341097 -s 0 -d -1 -p message -e 32 -c 2 -a 0 -i 7 -k RTR
r -t 0.856341097 -s 5 -d -1 -p message -e 32 -c 2 -a 0 -i 7 -k RTR
r -t 0.856341097 -s 2 -d -1 -p message -e 32 -c 2 -a 0 -i 7 -k RTR
+ -t 0.941991940 -s 9 -d -1 -p message -e 32 -c 2 -a 0 -i 8 -k RTR 
- -t 0.941991940 -s 9 -d -1 -p message -e 32 -c 2 -a 0 -i 8 -k RTR
h -t 0.941991940 -s 9 -d -1 -p message -e 32 -c 2 -a 0 -i 8 -k RTR
+ -t 0.942106940 -s 9 -d -1 -p message -e 90 -c 2 -a 0 -i 8 -k MAC 
- -t 0.942106940 -s 9 -d -1 -p message -e 90 -c 2 -a 0 -i 8 -k MAC
h -t 0.942106940 -s 9 -d -1 -p message -e 90 -c 2 -a 0 -i 8 -k MAC
r -t 0.942827606 -s 5 -d -1 -p message -e 32 -c 2 -a 0 -i 8 -k MAC
r -t 0.942827606 -s 8 -d -1 -p message -e 32 -c 2 -a 0 -i 8 -k MAC
r -t 0.942827606 -s 13 -d -1 -p message -e 32 -c 2 -a 0 -i 8 -k MAC
r -t 0.942827606 -s 10 -d -1 -p message -e 32 -c 2 -a 0 -i 8 -k MAC
r -t 0.942852606 -s 5 -d -1 -p message -e 32 -c 2 -a 0 -i 8 -k RTR
r -t 0.942852606 -s 8 -d -1 -p message -e 32 -c 2 -a 0 -i 8 -k RTR
r -t 0.942852606 -s 13 -d -1 -p message -e 32 -c 2 -a 0 -i 8 -k RTR
r -t 0.942852606 -s 10 -d -1 -p message -e 32 -c 2 -a 0 -i 8 -k RTR
+ -t 1.000000000 -s 0 -d -1 -p tcp -e 40 -c 2 -a 0 -i 9 -k AGT 
- -t 1.000000000 -s 0 -d -1 -p tcp -e 40 -c 2 -a 0 -i 9 -k AGT
h -t 1.000000000 -s 0 -d -1 -p tcp -e 40 -c 2 -a 0 -i 9 -k AGT
+ -t 1.045948644 -s 8 -d -1 -p message -e 32 -c 2 -a 0 -i 10 -k RTR 
- -t 1.045948644 -s 8 -d -1 -p message -e 32 -c 2 -a 0 -i 10 -k RTR
h -t 1.045948644 -s 8 -d -1 -p message -e 32 -c 2 -a 0 -i 10 -k RTR
+ -t 1.046123644 -s 8 -d -1 -p message -e 90 -c 2 -a 0 -i 10 -k MAC 
- -t 1.046123644 -s 8 -d -1 -p message -e 90 -c 2 -a 0 -i 10 -k MAC
h -t 1.046123644 -s 8 -d -1 -p message -e 90 -c 2 -a 0 -i 10 -k MAC
r -t 1.046844311 -s 4 -d -1 -p message -e 32 -c 2 -a 0 -i 10 -k MAC
r -t 1.046844311 -s 12 -d -1 -p message -e 32 -c 2 -a 0 -i 10 -k MAC
r -t 1.046844311 -s 9 -d -1 -p message -e 32 -c 2 -a 0 -i 10 -k MAC
r -t 1.046869311 -s 4 -d -1 -p message -e 32 -c 2 -a 0 -i 10 -k RTR
r -t 1.046869311 -s 12 -d -1 -p message -e 32 -c 2 -a 0 -i 10 -k RTR
r -t 1.046869311 -s 9 -d -1 -p message -e 32 -c 2 -a 0 -i 10 -k RTR
+ -t 1.355579888 -s 16 -d -1 -p message -e 32 -c 2 -a 0 -i 11 -k RTR 
- -t 1.355579888 -s 16 -d -1 -p message -e 32 -c 2 -a 0 -i 11 -k RTR
h -t 1.355579888 -s 16 -d -1 -p message -e 32 -c 2 -a 0 -i 11 -k RTR
+ -t 1.355714888 -s 16 -d -1 -p message -e 90 -c 2 -a 0 -i 11 -k MAC 
- -t 1.355714888 -s 16 -d -1 -p message -e 90 -c 2 -a 0 -i 11 -k MAC
h -t 1.355714888 -s 16 -d -1 -p message -e 90 -c 2 -a 0 -i 11 -k MAC
+ -t 1.393360128 -s 10 -d -1 -p message -e 32 -c 2 -a 0 -i 12 -k RTR 
- -t 1.393360128 -s 10 -d -1 -p message -e 32 -c 2 -a 0 -i 12 -k RTR
h -t 1.393360128 -s 10 -d -1 -p message -e 32 -c 2 -a 0 -i 12 -k RTR
+ -t 1.393495128 -s 10 -d -1 -p message -e 90 -c 2 -a 0 -i 12 -k MAC 
- -t 1.393495128 -s 10 -d -1 -p message -e 90 -c 2 -a 0 -i 12 -k MAC
h -t 1.393495128 -s 10 -d -1 -p message -e 90 -c 2 -a 0 -i 12 -k MAC
r -t 1.394215795 -s 6 -d -1 -p message -e 32 -c 2 -a 0 -i 12 -k MAC
r -t 1.394215795 -s 9 -d -1 -p message -e 32 -c 2 -a 0 -i 12 -k MAC
r -t 1.394215795 -s 14 -d -1 -p message -e 32 -c 2 -a 0 -i 12 -k MAC
r -t 1.394215795 -s 11 -d -1 -p message -e 32 -c 2 -a 0 -i 12 -k MAC
r -t 1.394240795 -s 6 -d -1 -p message -e 32 -c 2 -a 0 -i 12 -k RTR
r -t 1.394240795 -s 9 -d -1 -p message -e 32 -c 2 -a 0 -i 12 -k RTR
r -t 1.394240795 -s 14 -d -1 -p message -e 32 -c 2 -a 0 -i 12 -k RTR
r -t 1.394240795 -s 11 -d -1 -p message -e 32 -c 2 -a 0 -i 12 -k RTR
+ -t 1.617617693 -s 4 -d -1 -p message -e 32 -c 2 -a 0 -i 13 -k RTR 
- -t 1.617617693 -s 4 -d -1 -p message -e 32 -c 2 -a 0 -i 13 -k RTR
h -t 1.617617693 -s 4 -d -1 -p message -e 32 -c 2 -a 0 -i 13 -k RTR
+ -t 1.618132693 -s 4 -d -1 -p message -e 90 -c 2 -a 0 -i 13 -k MAC 
- -t 1.618132693 -s 4 -d -1 -p message -e 90 -c 2 -a 0 -i 13 -k MAC
h -t 1.618132693 -s 4 -d -1 -p message -e 90 -c 2 -a 0 -i 13 -k MAC
r -t 1.618853360 -s 0 -d -1 -p message -e 32 -c 2 -a 0 -i 13 -k MAC
r -t 1.618853360 -s 8 -d -1 -p message -e 32 -c 2 -a 0 -i 13 -k MAC
r -t 1.618853360 -s 5 -d -1 -p message -e 32 -c 2 -a 0 -i 13 -k MAC
r -t 1.618878360 -s 0 -d -1 -p message -e 32 -c 2 -a 0 -i 13 -k RTR
r -t 1.618878360 -s 8 -d -1 -p message -e 32 -c 2 -a 0 -i 13 -k RTR
r -t 1.618878360 -s 5 -d -1 -p message -e 32 -c 2 -a 0 -i 13 -k RTR
+ -t 1.686285665 -s 12 -d -1 -p message -e 32 -c 2 -a 0 -i 14 -k RTR 
- -t 1.686285665 -s 12 -d -1 -p message -e 32 -c 2 -a 0 -i 14 -k RTR
h -t 1.686285665 -s 12 -d -1 -p message -e 32 -c 2 -a 0 -i 14 -k RTR
+ -t 1.686660665 -s 12 -d -1 -p message -e 90 -c 2 -a 0 -i 14 -k MAC 
- -t 1.686660665 -s 12 -d -1 -p message -e 90 -c 2 -a 0 -i 14 -k MAC
h -t 1.686660665 -s 12 -d -1 -p message -e 90 -c 2 -a 0 -i 14 -k MAC
r -t 1.687381332 -s 8 -d -1 -p message -e 32 -c 2 -a 0 -i 14 -k MAC
r -t 1.687381332 -s 13 -d -1 -p message -e 32 -c 2 -a 0 -i 14 -k MAC
r -t 1.687406332 -s 8 -d -1 -p message -e 32 -c 2 -a 0 -i 14 -k RTR
r -t 1.687406332 -s 13 -d -1 -p message -e 32 -c 2 -a 0 -i 14 -k RTR
+ -t 1.705949142 -s 15 -d -1 -p message -e 32 -c 2 -a 0 -i 15 -k RTR 
- -t 1.705949142 -s 15 -d -1 -p message -e 32 -c 2 -a 0 -i 15 -k RTR
h -t 1.705949142 -s 15 -d -1 -p message -e 32 -c 2 -a 0 -i 15 -k RTR
+ -t 1.706244142 -s 15 -d -1 -p message -e 90 -c 2 -a 0 -i 15 -k MAC 
- -t 1.706244142 -s 15 -d -1 -p message -e 90 -c 2 -a 0 -i 15 -k MAC
h -t 1.706244142 -s 15 -d -1 -p message -e 90 -c 2 -a 0 -i 15 -k MAC
r -t 1.706964809 -s 11 -d -1 -p message -e 32 -c 2 -a 0 -i 15 -k MAC
r -t 1.706964809 -s 14 -d -1 -p message -e 32 -c 2 -a 0 -i 15 -k MAC
r -t 1.706989809 -s 11 -d -1 -p message -e 32 -c 2 -a 0 -i 15 -k RTR
r -t 1.706989809 -s 14 -d -1 -p message -e 32 -c 2 -a 0 -i 15 -k RTR
+ -t 1.724462485 -s 11 -d -1 -p message -e 32 -c 2 -a 0 -i 17 -k RTR 
- -t 1.724462485 -s 11 -d -1 -p message -e 32 -c 2 -a 0 -i 17 -k RTR
h -t 1.724462485 -s 11 -d -1 -p message -e 32 -c 2 -a 0 -i 17 -k RTR
+ -t 1.724697485 -s 11 -d -1 -p message -e 90 -c 2 -a 0 -i 17 -k MAC 
- -t 1.724697485 -s 11 -d -1 -p message -e 90 -c 2 -a 0 -i 17 -k MAC
h -t 1.724697485 -s 11 -d -1 -p message -e 90 -c 2 -a 0 -i 17 -k MAC
r -t 1.725418152 -s 7 -d -1 -p message -e 32 -c 2 -a 0 -i 17 -k MAC
r -t 1.725418152 -s 10 -d -1 -p message -e 32 -c 2 -a 0 -i 17 -k MAC
r -t 1.725418152 -s 15 -d -1 -p message -e 32 -c 2 -a 0 -i 17 -k MAC
r -t 1.725443152 -s 7 -d -1 -p message -e 32 -c 2 -a 0 -i 17 -k RTR
r -t 1.725443152 -s 10 -d -1 -p message -e 32 -c 2 -a 0 -i 17 -k RTR
r -t 1.725443152 -s 15 -d -1 -p message -e 32 -c 2 -a 0 -i 17 -k RTR
+ -t 1.726412293 -s 0 -d -1 -p message -e 32 -c 2 -a 0 -i 16 -k RTR 
- -t 1.726412293 -s 0 -d -1 -p message -e 32 -c 2 -a 0 -i 16 -k RTR
h -t 1.726412293 -s 0 -d -1 -p message -e 32 -c 2 -a 0 -i 16 -k RTR
+ -t 1.726487293 -s 0 -d -1 -p message -e 90 -c 2 -a 0 -i 16 -k MAC 
- -t 1.726487293 -s 0 -d -1 -p message -e 90 -c 2 -a 0 -i 16 -k MAC
h -t 1.726487293 -s 0 -d -1 -p message -e 90 -c 2 -a 0 -i 16 -k MAC
r -t 1.727207960 -s 4 -d -1 -p message -e 32 -c 2 -a 0 -i 16 -k MAC
r -t 1.727207960 -s 1 -d -1 -p message -e 32 -c 2 -a 0 -i 16 -k MAC
r -t 1.727232960 -s 4 -d -1 -p message -e 32 -c 2 -a 0 -i 16 -k RTR
r -t 1.727232960 -s 1 -d -1 -p message -e 32 -c 2 -a 0 -i 16 -k RTR
+ -t 2.000000000 -s 1 -d -1 -p tcp -e 40 -c 2 -a 0 -i 18 -k AGT 
- -t 2.000000000 -s 1 -d -1 -p tcp -e 40 -c 2 -a 0 -i 18 -k AGT
h -t 2.000000000 -s 1 -d -1 -p tcp -e 40 -c 2 -a 0 -i 18 -k AGT
+ -t 3.000000000 -s 2 -d -1 -p tcp -e 40 -c 2 -a 0 -i 19 -k AGT 
- -t 3.000000000 -s 2 -d -1 -p tcp -e 40 -c 2 -a 0 -i 19 -k AGT
h -t 3.000000000 -s 2 -d -1 -p tcp -e 40 -c 2 -a 0 -i 19 -k AGT
+ -t 4.000000000 -s 3 -d -1 -p tcp -e 40 -c 2 -a 0 -i 20 -k AGT 
- -t 4.000000000 -s 3 -d -1 -p tcp -e 40 -c 2 -a 0 -i 20 -k AGT
h -t 4.000000000 -s 3 -d -1 -p tcp -e 40 -c 2 -a 0 -i 20 -k AGT
+ -t 5.000000000 -s 4 -d -1 -p tcp -e 40 -c 2 -a 0 -i 21 -k AGT 
- -t 5.000000000 -s 4 -d -1 -p tcp -e 40 -c 2 -a 0 -i 21 -k AGT
h -t 5.000000000 -s 4 -d -1 -p tcp -e 40 -c 2 -a 0 -i 21 -k AGT
+ -t 6.000000000 -s 5 -d -1 -p tcp -e 40 -c 2 -a 0 -i 22 -k AGT 
- -t 6.000000000 -s 5 -d -1 -p tcp -e 40 -c 2 -a 0 -i 22 -k AGT
h -t 6.000000000 -s 5 -d -1 -p tcp -e 40 -c 2 -a 0 -i 22 -k AGT
+ -t 7.000000000 -s 6 -d -1 -p tcp -e 40 -c 2 -a 0 -i 23 -k AGT 
- -t 7.000000000 -s 6 -d -1 -p tcp -e 40 -c 2 -a 0 -i 23 -k AGT
h -t 7.000000000 -s 6 -d -1 -p tcp -e 40 -c 2 -a 0 -i 23 -k AGT
+ -t 7.000000000 -s 6 -d 10 -p tcp -e 60 -c 2 -a 0 -i 23 -k RTR 
- -t 7.000000000 -s 6 -d 10 -p tcp -e 60 -c 2 -a 0 -i 23 -k RTR
h -t 7.000000000 -s 6 -d 10 -p tcp -e 60 -c 2 -a 0 -i 23 -k RTR
+ -t 7.000415000 -s 6 -d -1 -p ARP -e 86 -c 2 -a 0 -i 0 -k MAC 
- -t 7.000415000 -s 6 -d -1 -p ARP -e 86 -c 2 -a 0 -i 0 -k MAC
h -t 7.000415000 -s 6 -d -1 -p ARP -e 86 -c 2 -a 0 -i 0 -k MAC
r -t 7.001103667 -s 2 -d -1 -p ARP -e 28 -c 2 -a 0 -i 0 -k MAC
r -t 7.001103667 -s 5 -d -1 -p ARP -e 28 -c 2 -a 0 -i 0 -k MAC
r -t 7.001103667 -s 10 -d -1 -p ARP -e 28 -c 2 -a 0 -i 0 -k MAC
r -t 7.001103667 -s 7 -d -1 -p ARP -e 28 -c 2 -a 0 -i 0 -k MAC
+ -t 7.001578667 -s 10 -d -1 -p RTS -e 44 -c 2 -a 0 -i 0 -k MAC 
- -t 7.001578667 -s 10 -d -1 -p RTS -e 44 -c 2 -a 0 -i 0 -k MAC
h -t 7.001578667 -s 10 -d -1 -p RTS -e 44 -c 2 -a 0 -i 0 -k MAC
r -t 7.001931333 -s 6 -d -1 -p RTS -e 44 -c 2 -a 0 -i 0 -k MAC
+ -t 7.001941333 -s 6 -d -1 -p CTS -e 38 -c 2 -a 0 -i 0 -k MAC 
- -t 7.001941333 -s 6 -d -1 -p CTS -e 38 -c 2 -a 0 -i 0 -k MAC
h -t 7.001941333 -s 6 -d -1 -p CTS -e 38 -c 2 -a 0 -i 0 -k MAC
r -t 7.002246000 -s 10 -d -1 -p CTS -e 38 -c 2 -a 0 -i 0 -k MAC
+ -t 7.002256000 -s 10 -d -1 -p ARP -e 86 -c 2 -a 0 -i 0 -k MAC 
- -t 7.002256000 -s 10 -d -1 -p ARP -e 86 -c 2 -a 0 -i 0 -k MAC
h -t 7.002256000 -s 10 -d -1 -p ARP -e 86 -c 2 -a 0 -i 0 -k MAC
r -t 7.002944667 -s 6 -d -1 -p ARP -e 28 -c 2 -a 0 -i 0 -k MAC
+ -t 7.002954667 -s 6 -d -1 -p ACK -e 38 -c 2 -a 0 -i 0 -k MAC 
- -t 7.002954667 -s 6 -d -1 -p ACK -e 38 -c 2 -a 0 -i 0 -k MAC
h -t 7.002954667 -s 6 -d -1 -p ACK -e 38 -c 2 -a 0 -i 0 -k MAC
r -t 7.003259333 -s 10 -d -1 -p ACK -e 38 -c 2 -a 0 -i 0 -k MAC
+ -t 7.003808667 -s 6 -d -1 -p RTS -e 44 -c 2 -a 0 -i 0 -k MAC 
- -t 7.003808667 -s 6 -d -1 -p RTS -e 44 -c 2 -a 0 -i 0 -k MAC
h -t 7.003808667 -s 6 -d -1 -p RTS -e 44 -c 2 -a 0 -i 0 -k MAC
r -t 7.004161333 -s 10 -d -1 -p RTS -e 44 -c 2 -a 0 -i 0 -k MAC
+ -t 7.004171333 -s 10 -d -1 -p CTS -e 38 -c 2 -a 0 -i 0 -k MAC 
- -t 7.004171333 -s 10 -d -1 -p CTS -e 38 -c 2 -a 0 -i 0 -k MAC
h -t 7.004171333 -s 10 -d -1 -p CTS -e 38 -c 2 -a 0 -i 0 -k MAC
r -t 7.004476000 -s 6 -d -1 -p CTS -e 38 -c 2 -a 0 -i 0 -k MAC
+ -t 7.004486000 -s 6 -d 10 -p tcp -e 118 -c 2 -a 0 -i 23 -k MAC 
- -t 7.004486000 -s 6 -d 10 -p tcp -e 118 -c 2 -a 0 -i 23 -k MAC
h -t 7.004486000 -s 6 -d 10 -p tcp -e 118 -c 2 -a 0 -i 23 -k MAC
r -t 7.005430667 -s 10 -d 10 -p tcp -e 60 -c 2 -a 0 -i 23 -k MAC
+ -t 7.005440667 -s 10 -d -1 -p ACK -e 38 -c 2 -a 0 -i 0 -k MAC 
- -t 7.005440667 -s 10 -d -1 -p ACK -e 38 -c 2 -a 0 -i 0 -k MAC
h -t 7.005440667 -s 10 -d -1 -p ACK -e 38 -c 2 -a 0 -i 0 -k MAC
r -t 7.005455667 -s 10 -d 10 -p tcp -e 60 -c 2 -a 0 -i 23 -k AGT
+ -t 7.005455667 -s 10 -d -1 -p ack -e 40 -c 2 -a 0 -i 24 -k AGT 
- -t 7.005455667 -s 10 -d -1 -p ack -e 40 -c 2 -a 0 -i 24 -k AGT
h -t 7.005455667 -s 10 -d -1 -p ack -e 40 -c 2 -a 0 -i 24 -k AGT
+ -t 7.005455667 -s 10 -d 6 -p ack -e 60 -c 2 -a 0 -i 24 -k RTR 
- -t 7.005455667 -s 10 -d 6 -p ack -e 60 -c 2 -a 0 -i 24 -k RTR
h -t 7.005455667 -s 10 -d 6 -p ack -e 60 -c 2 -a 0 -i 24 -k RTR
r -t 7.005745333 -s 6 -d -1 -p ACK -e 38 -c 2 -a 0 -i 0 -k MAC
+ -t 7.005954667 -s 10 -d -1 -p RTS -e 44 -c 2 -a 0 -i 0 -k MAC 
- -t 7.005954667 -s 10 -d -1 -p RTS -e 44 -c 2 -a 0 -i 0 -k MAC
h -t 7.005954667 -s 10 -d -1 -p RTS -e 44 -c 2 -a 0 -i 0 -k MAC
r -t 7.006307333 -s 6 -d -1 -p RTS -e 44 -c 2 -a 0 -i 0 -k MAC
+ -t 7.006317333 -s 6 -d -1 -p CTS -e 38 -c 2 -a 0 -i 0 -k MAC 
- -t 7.006317333 -s 6 -d -1 -p CTS -e 38 -c 2 -a 0 -i 0 -k MAC
h -t 7.006317333 -s 6 -d -1 -p CTS -e 38 -c 2 -a 0 -i 0 -k MAC
r -t 7.006622000 -s 10 -d -1 -p CTS -e 38 -c 2 -a 0 -i 0 -k MAC
+ -t 7.006632000 -s 10 -d 6 -p ack -e 118 -c 2 -a 0 -i 24 -k MAC 
- -t 7.006632000 -s 10 -d 6 -p ack -e 118 -c 2 -a 0 -i 24 -k MAC
h -t 7.006632000 -s 10 -d 6 -p ack -e 118 -c 2 -a 0 -i 24 -k MAC
r -t 7.007576667 -s 6 -d 6 -p ack -e 60 -c 2 -a 0 -i 24 -k MAC
+ -t 7.007586667 -s 6 -d -1 -p ACK -e 38 -c 2 -a 0 -i 0 -k MAC 
- -t 7.007586667 -s 6 -d -1 -p ACK -e 38 -c 2 -a 0 -i 0 -k MAC
h -t 7.007586667 -s 6 -d -1 -p ACK -e 38 -c 2 -a 0 -i 0 -k MAC
r -t 7.007601667 -s 6 -d 6 -p ack -e 60 -c 2 -a 0 -i 24 -k AGT
+ -t 7.007601667 -s 6 -d -1 -p tcp -e 1540 -c 2 -a 0 -i 25 -k AGT 
- -t 7.007601667 -s 6 -d -1 -p tcp -e 1540 -c 2 -a 0 -i 25 -k AGT
h -t 7.007601667 -s 6 -d -1 -p tcp -e 1540 -c 2 -a 0 -i 25 -k AGT
+ -t 7.007601667 -s 6 -d 10 -p tcp -e 1560 -c 2 -a 0 -i 25 -k RTR 
- -t 7.007601667 -s 6 -d 10 -p tcp -e 1560 -c 2 -a 0 -i 25 -k RTR
h -t 7.007601667 -s 6 -d 10 -p tcp -e 1560 -c 2 -a 0 -i 25 -k RTR
+ -t 7.007601667 -s 6 -d -1 -p tcp -e 1540 -c 2 -a 0 -i 26 -k AGT 
- -t 7.007601667 -s 6 -d -1 -p tcp -e 1540 -c 2 -a 0 -i 26 -k AGT
h -t 7.007601667 -s 6 -d -1 -p tcp -e 1540 -c 2 -a 0 -i 26 -k AGT
+ -t 7.007601667 -s 6 -d 10 -p tcp -e 1560 -c 2 -a 0 -i 26 -k RTR 
- -t 7.007601667 -s 6 -d 10 -p tcp -e 1560 -c 2 -a 0 -i 26 -k RTR
h -t 7.007601667 -s 6 -d 10 -p tcp -e 1560 -c 2 -a 0 -i 26 -k RTR
r -t 7.007891333 -s 10 -d -1 -p ACK -e 38 -c 2 -a 0 -i 0 -k MAC
+ -t 7.008200667 -s 6 -d -1 -p RTS -e 44 -c 2 -a 0 -i 0 -k MAC 
- -t 7.008200667 -s 6 -d -1 -p RTS -e 44 -c 2 -a 0 -i 0 -k MAC
h -t 7.008200667 -s 6 -d -1 -p RTS -e 44 -c 2 -a 0 -i 0 -k MAC
r -t 7.008553333 -s 10 -d -1 -p RTS -e 44 -c 2 -a 0 -i 0 -k MAC
+ -t 7.008563333 -s 10 -d -1 -p CTS -e 38 -c 2 -a 0 -i 0 -k MAC 
- -t 7.008563333 -s 10 -d -1 -p CTS -e 38 -c 2 -a 0 -i 0 -k MAC
h -t 7.008563333 -s 10 -d -1 -p CTS -e 38 -c 2 -a 0 -i 0 -k MAC
r -t 7.008868000 -s 6 -d -1 -p CTS -e 38 -c 2 -a 0 -i 0 -k MAC
+ -t 7.008878000 -s 6 -d 10 -p tcp -e 1618 -c 2 -a 0 -i 25 -k MAC 
- -t 7.008878000 -s 6 -d 10 -p tcp -e 1618 -c 2 -a 0 -i 25 -k MAC
h -t 7.008878000 -s 6 -d 10 -p tcp -e 1618 -c 2 -a 0 -i 25 -k MAC
r -t 7.021822667 -s 10 -d 10 -p tcp -e 1560 -c 2 -a 0 -i 25 -k MAC
+ -t 7.021832667 -s 10 -d -1 -p ACK -e 38 -c 2 -a 0 -i 0 -k MAC 
- -t 7.021832667 -s 10 -d -1 -p ACK -e 38 -c 2 -a 0 -i 0 -k MAC
h -t 7.021832667 -s 10 -d -1 -p ACK -e 38 -c 2 -a 0 -i 0 -k MAC
r -t 7.021847667 -s 10 -d 10 -p tcp -e 1560 -c 2 -a 0 -i 25 -k AGT
+ -t 7.021847667 -s 10 -d -1 -p ack -e 40 -c 2 -a 0 -i 27 -k AGT 
- -t 7.021847667 -s 10 -d -1 -p ack -e 40 -c 2 -a 0 -i 27 -k AGT
h -t 7.021847667 -s 10 -d -1 -p ack -e 40 -c 2 -a 0 -i 27 -k AGT
+ -t 7.021847667 -s 10 -d 6 -p ack -e 60 -c 2 -a 0 -i 27 -k RTR 
- -t 7.021847667 -s 10 -d 6 -p ack -e 60 -c 2 -a 0 -i 27 -k RTR
h -t 7.021847667 -s 10 -d 6 -p ack -e 60 -c 2 -a 0 -i 27 -k RTR
r -t 7.022137333 -s 6 -d -1 -p ACK -e 38 -c 2 -a 0 -i 0 -k MAC
+ -t 7.022186667 -s 10 -d -1 -p RTS -e 44 -c 2 -a 0 -i 0 -k MAC 
- -t 7.022186667 -s 10 -d -1 -p RTS -e 44 -c 2 -a 0 -i 0 -k MAC
h -t 7.022186667 -s 10 -d -1 -p RTS -e 44 -c 2 -a 0 -i 0 -k MAC
r -t 7.022539333 -s 6 -d -1 -p RTS -e 44 -c 2 -a 0 -i 0 -k MAC
+ -t 7.022549333 -s 6 -d -1 -p CTS -e 38 -c 2 -a 0 -i 0 -k MAC 
- -t 7.022549333 -s 6 -d -1 -p CTS -e 38 -c 2 -a 0 -i 0 -k MAC
h -t 7.022549333 -s 6 -d -1 -p CTS -e 38 -c 2 -a 0 -i 0 -k MAC
r -t 7.022854000 -s 10 -d -1 -p CTS -e 38 -c 2 -a 0 -i 0 -k MAC
+ -t 7.022864000 -s 10 -d 6 -p ack -e 118 -c 2 -a 0 -i 27 -k MAC 
- -t 7.022864000 -s 10 -d 6 -p ack -e 118 -c 2 -a 0 -i 27 -k MAC
h -t 7.022864000 -s 10 -d 6 -p ack -e 118 -c 2 -a 0 -i 27 -k MAC
r -t 7.023808667 -s 6 -d 6 -p ack -e 60 -c 2 -a 0 -i 27 -k MAC
+ -t 7.023818667 -s 6 -d -1 -p ACK -e 38 -c 2 -a 0 -i 0 -k MAC 
- -t 7.023818667 -s 6 -d -1 -p ACK -e 38 -c 2 -a 0 -i 0 -k MAC
h -t 7.023818667 -s 6 -d -1 -p ACK -e 38 -c 2 -a 0 -i 0 -k MAC
r -t 7.023833667 -s 6 -d 6 -p ack -e 60 -c 2 -a 0 -i 27 -k AGT
+ -t 7.023833667 -s 6 -d -1 -p tcp -e 1540 -c 2 -a 0 -i 28 -k AGT 
- -t 7.023833667 -s 6 -d -1 -p tcp -e 1540 -c 2 -a 0 -i 28 -k AGT
h -t 7.023833667 -s 6 -d -1 -p tcp -e 1540 -c 2 -a 0 -i 28 -k AGT
+ -t 7.023833667 -s 6 -d 10 -p tcp -e 1560 -c 2 -a 0 -i 28 -k RTR 
- -t 7.023833667 -s 6 -d 10 -p tcp -e 1560 -c 2 -a 0 -i 28 -k RTR
h -t 7.023833667 -s 6 -d 10 -p tcp -e 1560 -c 2 -a 0 -i 28 -k RTR
+ -t 7.023833667 -s 6 -d -1 -p tcp -e 1540 -c 2 -a 0 -i 29 -k AGT 
- -t 7.023833667 -s 6 -d -1 -p tcp -e 1540 -c 2 -a 0 -i 29 -k AGT
h -t 7.023833667 -s 6 -d -1 -p tcp -e 1540 -c 2 -a 0 -i 29 -k AGT
+ -t 7.023833667 -s 6 -d 10 -p tcp -e 1560 -c 2 -a 0 -i 29 -k RTR 
- -t 7.023833667 -s 6 -d 10 -p tcp -e 1560 -c 2 -a 0 -i 29 -k RTR
h -t 7.023833667 -s 6 -d 10 -p tcp -e 1560 -c 2 -a 0 -i 29 -k RTR
r -t 7.024123333 -s 10 -d -1 -p ACK -e 38 -c 2 -a 0 -i 0 -k MAC
+ -t 7.024232667 -s 6 -d -1 -p RTS -e 44 -c 2 -a 0 -i 0 -k MAC 
- -t 7.024232667 -s 6 -d -1 -p RTS -e 44 -c 2 -a 0 -i 0 -k MAC
h -t 7.024232667 -s 6 -d -1 -p RTS -e 44 -c 2 -a 0 -i 0 -k MAC
r -t 7.024585333 -s 10 -d -1 -p RTS -e 44 -c 2 -a 0 -i 0 -k MAC
+ -t 7.024595333 -s 10 -d -1 -p CTS -e 38 -c 2 -a 0 -i 0 -k MAC 
- -t 7.024595333 -s 10 -d -1 -p CTS -e 38 -c 2 -a 0 -i 0 -k MAC
h -t 7.024595333 -s 10 -d -1 -p CTS -e 38 -c 2 -a 0 -i 0 -k MAC
r -t 7.024900000 -s 6 -d -1 -p CTS -e 38 -c 2 -a 0 -i 0 -k MAC
+ -t 7.024910000 -s 6 -d 10 -p tcp -e 1618 -c 2 -a 0 -i 26 -k MAC 
- -t 7.024910000 -s 6 -d 10 -p tcp -e 1618 -c 2 -a 0 -i 26 -k MAC
h -t 7.024910000 -s 6 -d 10 -p tcp -e 1618 -c 2 -a 0 -i 26 -k MAC
r -t 7.037854667 -s 10 -d 10 -p tcp -e 1560 -c 2 -a 0 -i 26 -k MAC
+ -t 7.037864667 -s 10 -d -1 -p ACK -e 38 -c 2 -a 0 -i 0 -k MAC 
- -t 7.037864667 -s 10 -d -1 -p ACK -e 38 -c 2 -a 0 -i 0 -k MAC
h -t 7.037864667 -s 10 -d -1 -p ACK -e 38 -c 2 -a 0 -i 0 -k MAC
r -t 7.037879667 -s 10 -d 10 -p tcp -e 1560 -c 2 -a 0 -i 26 -k AGT
+ -t 7.037879667 -s 10 -d -1 -p ack -e 40 -c 2 -a 0 -i 30 -k AGT 
- -t 7.037879667 -s 10 -d -1 -p ack -e 40 -c 2 -a 0 -i 30 -k AGT
h -t 7.037879667 -s 10 -d -1 -p ack -e 40 -c 2 -a 0 -i 30 -k AGT
+ -t 7.037879667 -s 10 -d 6 -p ack -e 60 -c 2 -a 0 -i 30 -k RTR 
- -t 7.037879667 -s 10 -d 6 -p ack -e 60 -c 2 -a 0 -i 30 -k RTR
h -t 7.037879667 -s 10 -d 6 -p ack -e 60 -c 2 -a 0 -i 30 -k RTR
r -t 7.038169333 -s 6 -d -1 -p ACK -e 38 -c 2 -a 0 -i 0 -k MAC
+ -t 7.038678667 -s 10 -d -1 -p RTS -e 44 -c 2 -a 0 -i 0 -k MAC 
- -t 7.038678667 -s 10 -d -1 -p RTS -e 44 -c 2 -a 0 -i 0 -k MAC
h -t 7.038678667 -s 10 -d -1 -p RTS -e 44 -c 2 -a 0 -i 0 -k MAC
r -t 7.039031333 -s 6 -d -1 -p RTS -e 44 -c 2 -a 0 -i 0 -k MAC
+ -t 7.039041333 -s 6 -d -1 -p CTS -e 38 -c 2 -a 0 -i 0 -k MAC 
- -t 7.039041333 -s 6 -d -1 -p CTS -e 38 -c 2 -a 0 -i 0 -k MAC
h -t 7.039041333 -s 6 -d -1 -p CTS -e 38 -c 2 -a 0 -i 0 -k MAC
r -t 7.039346000 -s 10 -d -1 -p CTS -e 38 -c 2 -a 0 -i 0 -k MAC
+ -t 7.039356000 -s 10 -d 6 -p ack -e 118 -c 2 -a 0 -i 30 -k MAC 
- -t 7.039356000 -s 10 -d 6 -p ack -e 118 -c 2 -a 0 -i 30 -k MAC
h -t 7.039356000 -s 10 -d 6 -p ack -e 118 -c 2 -a 0 -i 30 -k MAC
r -t 7.040300667 -s 6 -d 6 -p ack -e 60 -c 2 -a 0 -i 30 -k MAC
+ -t 7.040310667 -s 6 -d -1 -p ACK -e 38 -c 2 -a 0 -i 0 -k MAC 
- -t 7.040310667 -s 6 -d -1 -p ACK -e 38 -c 2 -a 0 -i 0 -k MAC
h -t 7.040310667 -s 6 -d -1 -p ACK -e 38 -c 2 -a 0 -i 0 -k MAC
r -t 7.040325667 -s 6 -d 6 -p ack -e 60 -c 2 -a 0 -i 30 -k AGT
+ -t 7.040325667 -s 6 -d -1 -p tcp -e 1540 -c 2 -a 0 -i 31 -k AGT 
- -t 7.040325667 -s 6 -d -1 -p tcp -e 1540 -c 2 -a 0 -i 31 -k AGT
h -t 7.040325667 -s 6 -d -1 -p tcp -e 1540 -c 2 -a 0 -i 31 -k AGT
+ -t 7.040325667 -s 6 -d 10 -p tcp -e 1560 -c 2 -a 0 -i 31 -k RTR 
- -t 7.040325667 -s 6 -d 10 -p tcp -e 1560 -c 2 -a 0 -i 31 -k RTR
h -t 7.040325667 -s 6 -d 10 -p tcp -e 1560 -c 2 -a 0 -i 31 -k RTR
+ -t 7.040325667 -s 6 -d -1 -p tcp -e 1540 -c 2 -a 0 -i 32 -k AGT 
- -t 7.040325667 -s 6 -d -1 -p tcp -e 1540 -c 2 -a 0 -i 32 -k AGT
h -t 7.040325667 -s 6 -d -1 -p tcp -e 1540 -c 2 -a 0 -i 32 -k AGT
+ -t 7.040325667 -s 6 -d 10 -p tcp -e 1560 -c 2 -a 0 -i 32 -k RTR 
- -t 7.040325667 -s 6 -d 10 -p tcp -e 1560 -c 2 -a 0 -i 32 -k RTR
h -t 7.040325667 -s 6 -d 10 -p tcp -e 1560 -c 2 -a 0 -i 32 -k RTR
r -t 7.040615333 -s 10 -d -1 -p ACK -e 38 -c 2 -a 0 -i 0 -k MAC
+ -t 7.040804667 -s 6 -d -1 -p RTS -e 44 -c 2 -a 0 -i 0 -k MAC 
- -t 7.040804667 -s 6 -d -1 -p RTS -e 44 -c 2 -a 0 -i 0 -k MAC
h -t 7.040804667 -s 6 -d -1 -p RTS -e 44 -c 2 -a 0 -i 0 -k MAC
r -t 7.041157333 -s 10 -d -1 -p RTS -e 44 -c 2 -a 0 -i 0 -k MAC
+ -t 7.041167333 -s 10 -d -1 -p CTS -e 38 -c 2 -a 0 -i 0 -k MAC 
- -t 7.041167333 -s 10 -d -1 -p CTS -e 38 -c 2 -a 0 -i 0 -k MAC
h -t 7.041167333 -s 10 -d -1 -p CTS -e 38 -c 2 -a 0 -i 0 -k MAC
r -t 7.041472000 -s 6 -d -1 -p CTS -e 38 -c 2 -a 0 -i 0 -k MAC
+ -t 7.041482000 -s 6 -d 10 -p tcp -e 1618 -c 2 -a 0 -i 28 -k MAC 
- -t 7.041482000 -s 6 -d 10 -p tcp -e 1618 -c 2 -a 0 -i 28 -k MAC
h -t 7.041482000 -s 6 -d 10 -p tcp -e 1618 -c 2 -a 0 -i 28 -k MAC
r -t 7.054426667 -s 10 -d 10 -p tcp -e 1560 -c 2 -a 0 -i 28 -k MAC
+ -t 7.054436667 -s 10 -d -1 -p ACK -e 38 -c 2 -a 0 -i 0 -k MAC 
- -t 7.054436667 -s 10 -d -1 -p ACK -e 38 -c 2 -a 0 -i 0 -k MAC
h -t 7.054436667 -s 10 -d -1 -p ACK -e 38 -c 2 -a 0 -i 0 -k MAC
r -t 7.054451667 -s 10 -d 10 -p tcp -e 1560 -c 2 -a 0 -i 28 -k AGT
+ -t 7.054451667 -s 10 -d -1 -p ack -e 40 -c 2 -a 0 -i 33 -k AGT 
- -t 7.054451667 -s 10 -d -1 -p ack -e 40 -c 2 -a 0 -i 33 -k AGT
h -t 7.054451667 -s 10 -d -1 -p ack -e 40 -c 2 -a 0 -i 33 -k AGT
+ -t 7.054451667 -s 10 -d 6 -p ack -e 60 -c 2 -a 0 -i 33 -k RTR 
- -t 7.054451667 -s 10 -d 6 -p ack -e 60 -c 2 -a 0 -i 33 -k RTR
h -t 7.054451667 -s 10 -d 6 -p ack -e 60 -c 2 -a 0 -i 33 -k RTR
r -t 7.054741333 -s 6 -d -1 -p ACK -e 38 -c 2 -a 0 -i 0 -k MAC
+ -t 7.054811333 -s 6 -d -1 -p RTS -e 44 -c 2 -a 0 -i 0 -k MAC 
- -t 7.054811333 -s 6 -d -1 -p RTS -e 44 -c 2 -a 0 -i 0 -k MAC
h -t 7.054811333 -s 6 -d -1 -p RTS -e 44 -c 2 -a 0 -i 0 -k MAC
r -t 7.055164000 -s 10 -d -1 -p RTS -e 44 -c 2 -a 0 -i 0 -k MAC
+ -t 7.055174000 -s 10 -d -1 -p CTS -e 38 -c 2 -a 0 -i 0 -k MAC 
- -t 7.055174000 -s 10 -d -1 -p CTS -e 38 -c 2 -a 0 -i 0 -k MAC
h -t 7.055174000 -s 10 -d -1 -p CTS -e 38 -c 2 -a 0 -i 0 -k MAC
r -t 7.055478667 -s 6 -d -1 -p CTS -e 38 -c 2 -a 0 -i 0 -k MAC
+ -t 7.055488667 -s 6 -d 10 -p tcp -e 1618 -c 2 -a 0 -i 29 -k MAC 
- -t 7.055488667 -s 6 -d 10 -p tcp -e 1618 -c 2 -a 0 -i 29 -k MAC
h -t 7.055488667 -s 6 -d 10 -p tcp -e 1618 -c 2 -a 0 -i 29 -k MAC
r -t 7.068433333 -s 10 -d 10 -p tcp -e 1560 -c 2 -a 0 -i 29 -k MAC